<?xml version="1.0"?>
<VTKFile type="UnstructuredGrid" version="0.1" byte_order="LittleEndian">
  <Time timestep="0"/>
  <UnstructuredGrid>
    <Piece NumberOfPoints="849" NumberOfCells="848">
      <Points>
        <DataArray type="Float32" NumberOfComponents="3" format="ascii">
-0.5143 0.2242 0 -0.5143 6.231 0 -0.5143 -5.7826 0 -4.4312 -39.3674 4.5339 -4.1268 -83.9397 8.1251 -5.3681 -96.2357 11.4681 -6.2417 -108.519 14.9773 -6.5468 -121.077 17.4061 -7.0976 -133.235 18.2708 -7.6848 -145.398 19.0936 -7.9626 -160.963 18.1345 -8.5043 -176.429 16.1066 -9.7733 -191.791 13.6443 -10.0936 -207.326 12.4766 0.3111 -186.311 16.896 10.9008 -164.364 21.4051 21.8196 -142.524 25.6371 32.582 -120.572 29.6857 44.4553 -99.2652 34.0221 56.8637 -78.7669 40.2982 67.7687 -57.8155 47.7439 78.1061 -35.8775 52.7321 90.3573 -14.932 57.7556 102.907 5.7069 63.2865 115.827 25.7375 70.039 129.576 45.5467 75.7455 136.817 70.5974 74.0747 144.553 95.3971 76.932 153.521 116.498 75.0643 162.221 137.887 75.6078 170.776 159.316 76.6623 178.51 180.472 81.478 176.413 211.288 86.5377 173.66 242.051 91.9132 187.457 194.307 82.0931 197.103 207.714 81.1376 206.75 221.121 80.1821 216.396 234.528 79.2266 226.18 247.8 77.9679 236.243 260.796 76.0889 143.947 96.9675 76.7385 143.412 48.7977 84.549 157.747 51.7124 92.9104 172.418 54.8301 100.588 187.438 57.8621 107.602 203.409 59.9864 112.349 220.105 61.3686 114.04 236.16 61.1688 118.635 249.636 61.6723 128.691 261.699 62.4791 140.432 272.639 63.1757 153.221 283.044 64.0298 166.45 293.519 64.8718 179.625 304.308 65.7583 192.541 315.612 66.9429 204.983 327.788 68.916 216.37 341.936 76.7059 219.549 357.081 83.717 217.947 373.134 88.217 215.509 -10.0227 -208.966 13.8689 -10.1452 -219.778 18.1593 -9.5032 -230.088 20.5056 -8.2748 -240.482 22.1215 -7.042 -250.995 22.3431 -5.6706 -261.446 21.3399 -4.3249 -271.737 19.3036 -4.6221 -284.018 19.9372 -4.9696 -296.3 20.637 -12.0539 -310.116 19.9125 -19.0747 -324.061 19.6471 15.3144 -334.224 12.0303 51.0362 -344.326 14.5063 59.0439 -345.861 40.4568 62.7731 -352.323 66.5294 63.2059 -354.347 93.565 65.2677 -351.056 120.666 66.6481 -354.453 147.496 67.925 -362.669 173.336 61.4029 -362.42 199.93 54.951 -367.568 225.983 52.1984 -369.855 239.704 49.2659 -371.485 253.494 55.5908 -373.272 276.499 59.3898 -375.035 299.932 58.808 -385.867 321.577 61.2889 -397.396 342.727 64.856 -405.02 365.392 66.0432 -408.794 389.301 66.4507 -411.998 413.328 66.5151 -417.913 436.782 66.0854 -422.959 460.409 71.461 -428.339 483.209 76.827 -431.218 506.531 80.0183 -431.483 530.538 82.4499 -434.715 554.426 85.5696 -437.194 578.342 88.1391 -440.114 602.269 92.9397 -441.201 625.993 98.1789 -440.35 649.648 102.489 -439.768 673.437 111.037 -444.794 695.541 117.596 -451.125 717.984 120.875 -455.713 741.503 127.013 -452.714 764.52 127.996 -461.989 772.617 128.757 -471.846 780.529 116.052 -480.489 793.213 104.4 -488.862 807.293 94.7455 -498.692 821.938 86.125 -509.025 836.889 78.0029 -519.527 851.996 70.8716 -530.814 867.04 132.342 -469.738 795.352 133.191 -470.822 811.053 133.683 -473.011 826.672 134.54 -475.917 842.157 135.451 -479.051 857.596 136.204 -482.271 873.026 136.603 -485.311 888.505 136.788 -488.271 904.005 136.865 -491.343 919.483 138.445 -494.129 934.884 142.535 -497.195 949.806 146.826 -499.732 964.763 151.083 -501.269 979.878 154.76 -502.248 995.191 158.202 -502.885 1010.58 162.007 -503.038 1025.89 166.086 -503.003 1041.14 170.09 -503.533 1056.39 173.505 -505.359 1071.68 177.034 -507.052 1086.97 180.15 -507.544 1102.42 183.035 -507.305 1117.93 185.808 -507.299 1133.47 188.151 -507.429 1149.07 190.06 -506.176 1164.67 191.675 -503.418 1180.12 193.296 -500.653 1195.57 194.877 -498.334 1211.1 196.046 -496.471 1226.72 197.07 -494.675 1242.32 197.904 -492.759 1257.92 198.546 -490.571 1273.53 199.218 -488.066 1289.09 200.458 -484.67 1304.45 201.892 -481.135 1319.77 203.425 -477.582 1335.07 203.647 -476.015 1350.74 202.537 -476.107 1366.47 135.238 -457.606 775.96 143.972 -462.686 787.085 41.253 -367.568 258.894 32.951 -363.437 264.046 67.9642 -360.785 237.868 80.2944 -348.639 246.642 92.6685 -336.149 254.858 105.956 -325.023 263.27 72.1607 -351.997 12.5509 92.9266 -360.494 10.1363 113.315 -370.023 11.1801 133.299 -379.452 15.5435 152.391 -389.614 21.9818 172.494 -398.311 26.5748 194.043 -403.385 22.5255 215.548 -407.502 17.1146 236.456 -414.74 19.5057 256.282 -424.104 24.8373 276.293 -434 28.1098 296.05 -444.861 28.8229 316.507 -454.162 26.8949 337.895 -460.373 23.4534 346.071 -463.417 24.2043 349.672 -492.162 26.7903 341.794 -517.227 32.208 382.137 -480.486 23.7361 403.553 -503.885 28.6131 416.957 -514.72 26.6282 430.823 -524.936 24.2675 444.823 -534.953 21.8368 458.883 -544.843 19.2403 473.116 -554.522 16.8072 486.972 -564.783 17.2334 499.225 -576.124 22.0103 509.117 -587.527 30.4849 419.553 -503.94 34.2654 436.063 -503.084 39.0621 452.116 -502.23 44.7885 466.398 -501.933 54.378 481.623 -501.219 62.3631 494.103 -499.823 73.9759 503.848 -499.008 88.137 515.097 -498.429 101.106 529.118 -497.037 110.918 544.177 -496.142 119.197 559.487 -496.835 127.022 574.879 -496.221 134.677 589.85 -495.05 142.976 605.308 -492.632 149.942 621.348 -489.325 155.238 637.574 -487.733 160.74 650.596 -485.265 171.526 662.329 -482.25 183.757 675.388 -479.12 194.493 691.038 -476.332 200.962 339.373 -462.303 23.7538 334.34 -474.366 11.8735 327.994 -485.244 -0.3559 321.648 -496.122 -12.5854 315.869 -507.27 -24.8493 343.953 -465.583 21.2048 -24.7203 -340.28 19.4352 -30.4238 -356.477 18.6939 -52.3094 -366.492 11.5812 -74.7 -376.341 4.9988 -93.1488 -388.928 -6.4021 -113.721 -388.093 -20.9036 -133.643 -399.51 -29.8004 -153.873 -409.348 -41.0334 -172.758 -418.031 -55.3672 -188.957 -435.082 -62.4209 -185.805 -441.561 -81.0811 -182.747 -448.22 -100.068 -179.702 -456.892 -118.182 -171.613 -470.037 -130.616 -158.666 -485.326 -133.787 -145.171 -500.359 -132.891 -196.344 -440.289 -61.529 -219.384 -453.592 -61.928 -232.671 -465.177 -67.2168 -233.14 -462.083 -83.2954 -233.558 -461.234 -99.965 -234.886 -462.369 -116.633 -236.907 -464.521 -133.13 -238.615 -467.554 -149.523 -240.353 -470.688 -165.896 -241.877 -473.672 -182.317 -243.007 -476.795 -198.744 -243.956 -480.173 -215.133 -245.127 -483.672 -231.482 -246.991 -486.504 -247.889 -249.456 -488.333 -264.355 -252.419 -488.417 -280.845 -255.637 -487.6 -297.274 -259.002 -486.605 -313.662 -262.334 -485.575 -330.056 -265.488 -484.494 -346.481 -268.665 -483.407 -362.902 -272.172 -482.245 -379.249 -276.391 -481.299 -395.441 -249.782 -482.335 -68.8045 -268.565 -495.586 -76.8053 -289.461 -507.62 -78.4551 -309.34 -521.343 -75.3122 -331.075 -532.321 -74.7433 -349.533 -546.883 -79.9864 -367.855 -560.591 -87.8123 -390.71 -567.823 -91.2447 -414.051 -574.493 -92.6769 -436.147 -581.564 -99.902 -447.426 -585.873 -102.437 -458.897 -590.012 -104.418 -475.465 -605.091 -106.15 -493.605 -618.663 -104.556 -511.833 -629.567 -112.122 -528.649 -639.83 -123.464 -544.185 -652.567 -134.09 -560.58 -666.259 -141.821 -579.397 -678.101 -146.53 -599.192 -688.731 -150.059 -619.045 -699.155 -153.856 -638.239 -709.64 -160.057 -657.665 -719.613 -166.384 -676.835 -731.171 -169.692 -692.262 -746.823 -175.501 -710.168 -760.715 -176.802 -729.247 -773.076 -176.751 -748.474 -784.863 -179.542 -767.235 -797.388 -182.395 -786.122 -809.824 -184.837 -805.153 -821.923 -187.77 -823.429 -835.373 -189.046 -841.547 -849.102 -188.393 -859.945 -862.398 -186.997 -878.226 -875.711 -186.853 -893.112 -892.521 -190.41 -908.603 -908.507 -195.022 -925.562 -922.587 -200.525 -944.34 -935.007 -203.304 -961.505 -949.05 -198.806 -968.872 -965.287 -206.745 -975.463 -981.913 -214.999 -965.779 -953.87 -205.853 -977.339 -958.11 -227.328 -986.069 -959.11 -241.435 -994.488 -962.18 -255.436 -1002.84 -966.217 -269.237 -1011.2 -970.684 -282.898 -1019.13 -976.105 -296.473 -984.085 -965.68 -212.467 -998.741 -972.879 -216.435 -1012.86 -980.666 -221.176 -1026.76 -988.687 -226.192 -1040.8 -996.383 -231.325 -1055 -1003.72 -236.521 -1069.17 -1011.09 -241.755 -1082.17 -1021.18 -245.027 -1094.97 -1031.75 -247.564 -1108.47 -1041.65 -249.122 -1122.5 -1050.8 -250.544 -1136.55 -1060.01 -251.213 -1150.47 -1069.41 -251.716 -1164.11 -1079 -253.812 -1177.79 -1088.53 -255.913 -1192.31 -1096.93 -256.916 -1206.9 -1105.22 -258.024 -1221.69 -1113.07 -259.437 -1237.29 -1119.3 -259.039 -1252.99 -1125.28 -258.256 -1268.63 -1131.43 -258.152 -1284.33 -1137.42 -258.617 -1300.12 -1143.16 -259.067 -1316.05 -1148.53 -259.281 -1331.99 -1153.81 -258.456 -1347.84 -1159.24 -257.061 -1363.69 -1164.69 -256.521 -1379.42 -1169.74 -259.558 -467.127 -582.869 -102.631 -475.245 -575.224 -100.717 -454.574 -592.217 -86.2433 -472.097 -600.49 -69.1709 -202.891 -446.189 -62.819 -15.8305 -403.611 7.0705 -14.1491 -454.167 11.2039 -13.7819 -462.761 -26.9954 -18.1696 -472.696 -65.0714 -26.7453 -480.669 -86.1988 -34.9593 -487.964 -107.718 -44.0549 -493.403 -120.41 -53.5725 -500.659 -131.849 -64.4749 -507.037 -142.482 -77.3615 -512.021 -151.607 -90.6623 -517.807 -159.589 -102.767 -523.114 -169.569 -114.467 -527.543 -180.425 -126.262 -530.968 -191.511 -57.0408 -493.885 -94.6024 -78.2457 -499.366 -78.96 -99.0841 -501.209 -62.0435 -117.249 -498.728 -42.5261 -137.365 -501.81 -25.6934 -160.967 -506.386 -13.6365 -186.55 -509.537 -6.3048 -209.37 -514.71 6.7241 -204.826 -513.14 23.5037 -199.724 -511.461 40.487 -207.563 -525.665 19.9059 -205.277 -536.876 33.1932 -18.4192 -477.039 -64.1431 -16.8044 -463.727 19.7165 -18.1458 -475.184 25.9358 -17.3571 -488.143 27.9007 -15.8693 -501.253 28.1626 9.7673 -505.521 17.3371 33.8238 -506.175 2.2427 54.6178 -503.249 -17.0849 73.2184 -501.842 -38.6982 92.519 -505.176 -59.3849 112.126 -511.702 -79.076 131.587 -506.892 -83.6162 151.003 -504.238 -90.0801 167.884 -510.508 -91.3102 185.7 -511.735 -95.2498 203.109 -507.951 -98.3836 221.087 -504.475 -98.3547 238.448 -501.535 -102.06 254.077 -500.867 -109.709 272.37 -501.131 -108.898 289.752 -496.977 -112.202 304.693 -488.157 -118.024 320.118 -482.654 -126.284 150.355 -504.894 -90.5774 116.519 -519.749 -80.4013 -7.2428 -548.503 27.0794 -5.0557 
[...]
      <PointData>
        <DataArray type="Float32" Name="c1" NumberOfComponents="1" format="ascii">
0.994014 0.994014 0.994014 0 0 0 0 0 0 0 0 0 0 0 0 0 0 0 0 0 0 0 0 0 0 0 0 0 0 0 0 0 0 0 0 0 0 0 0 0 0 0 0 0 0 0 0 0 0 0 0 0 0 0 0 0 0 0 0 0 0 0 0 0 0 0 0 0 0 0 0 0 0 0 0 0 0 0 0 0 0 0 0 0 0 0 0 0 0 0 0 0 0 0 0 0 0 0 0 0 0 0 0 0 0 0 0 0 0 0 0 0 0 0 0 0 0 0 0 0 0 0 0 0 0 0 0 0 0 0 0 0 0 0 0 0 0 0 0 0 0 0 0 0 0 0 0 0 0 0 0 0 0 0 0 0 0 0 0 0 0 0 0 0 0 0 0 0 0 0 0 0 0 0 0 0 0 0 0 0 0 0 0 0 0 0 0 0 0 0 0 0 0 0 0 0 0 0 0 0 0 0 0 0 0 0 0 0 0 0 0 0 0 0 0 0 0 0 0 0 0 0 0 0 0 0 0 0 0 0 0 0 0 0 0 0 0 0 0 0 0 0 0 0 0 0 0 0 0 0 0 0 0 0 0 0 0 0 0 0 0 0 0 0 0 0 0 0 0 0 0 0 0 0 0 0 0 0 0 0 0 0 0 0 0 0 0 0 0 0 0 0 0 0 0 0 0 0 0 0 0 0 0 0 0 0 0 0 0 0 0 0 0 0 0 0 0 0 0 0 0 0 0 0 0 0 0 0 0 0 0 0 0 0 0 0 0 0 0 0 0 0 0 0 0 0 0 0 0 0 0 0 0 0 0 0 0 0 0 0 0 0 0 0 0 0 0 0 0 0 0 0 0 0 0 0 0 0 0 0 0 0 0 0 0 0 0 0 0 0 0 0 0 0 0 0 0 0 0 0 0 0 0 0 0 0 0 0 0 0 0 0 0 0 0 0 0 0 0 0 0 0 0 0 0 0 0 0 0 0 0 0 0 0 0 0 0 0 0 0 0 0 0 0 0 0 0 0 0 0 0 0 0 0 0 0 0 0 0 0 0 0 0 0 0 0 0 0 0 0 0 0 0 0 0 0 0 0 0 0 0 0 0 0 0 0 0 0 0 0 0 0 0 0 0 0 0 0 0 0 0 0 0 0 0 0 0 0 0 0 0 0 0 0 0 0 0 0 0 0 0 0 0 0 0 0 0 0 0 0 0 0 0 0 0 0 0 0 0 0 0 0 0 0 0 0 0 0 0 0 0 0 0 0 0 0 0 0 0 0 0 0 0 0 0 0 0 0 0 0 0 0 0 0 0 0 0 0 0 0 0 0 0 0 0 0 0 0 0 0 0 0 0 0 0 0 0 0 0 0 0 0 0 0 0 0 0 0 0 0 0 0 0 0 0 0 0 0 0 0 0 0 0 0 0 0 0 0 0 0 0 0 0 0 0 0 0 0 0 0 0 0 0 0 0 0 0 0 0 0 0 0 0 0 0 0 0 0 0 0 0 0 0 0 0 0 0 0 0 0 0 0 0 0 0 0 0 0 0 0 0 0 0 0 0 0 0 0 0 0 0 0 0 0 0 0 0 0 0 0 0 0 0 0 0 0 0 0 0 0 0 0 0 0 0 0 0 0 0 0 0 0 0 0 0 0 0 0 0 0 0 0 0 0 0 0 0 0 0 0 0 0 0 0 0 0 0 0 0 0 0 0 0 0 0 0 0 0 0 0 0.994014 0.994014 0.994014 0.994014 0.994014 0.994014 0.994014 0.994014 0.994014 0.994014 0.994014 0.994014 0.994014 0.994014 0.994014 0.994014 0.994014 0.994014 0.994014 0.994014 0.994014 0.994014 0.994014 0.994014 0.994014 0.994014 0.994014 0.994014 0.994014 0.994014 0.994014 0.994014 0.994014 0.994014 0.994014 0.994014 0.994014 0.994014 0.994014 0.994014 0.994014 0.994014 0.994014 0.994014 0.994014 0.994014 0.994014 0.994014 0.994014 0.994014 0.994014 0.994014 0.994014 0.994014 0.994014 0.994014 0.994014 0.994014 0.994014 0.994014 0.994014 0.994014 0.994014 0.994014 0.994014 0.994014 0.994014 0.994014 0.994014 0.994014 0.994014 0.994014 0.994014 0.994014 0.994014 0.994014 0.994014 0.994014 0.994014 0.994014 0.994014 0.994014 0.994014 0.994014 0.994014 0.994014 0.994014 0.994014 0.994014 
        </DataArray>
        <DataArray type="Float32" Name="c2" NumberOfComponents="1" format="ascii">
0.00566251 0.00566251 0.00566251 0 0 0 0 0 0 0 0 0 0 0 0 0 0 0 0 0 0 0 0 0 0 0 0 0 0 0 0 0 0 0 0 0 0 0 0 0 0 0 0 0 0 0 0 0 0 0 0 0 0 0 0 0 0 0 0 0 0 0 0 0 0 0 0 0 0 0 0 0 0 0 0 0 0 0 0 0 0 0 0 0 0 0 0 0 0 0 0 0 0 0 0 0 0 0 0 0 0 0 0 0 0 0 0 0 0 0 0 0 0 0 0 0 0 0 0 0 0 0 0 0 0 0 0 0 0 0 0 0 0 0 0 0 0 0 0 0 0 0 0 0 0 0 0 0 0 0 0 0 0 0 0 0 0 0 0 0 0 0 0 0 0 0 0 0 0 0 0 0 0 0 0 0 0 0 0 0 0 0 0 0 0 0 0 0 0 0 0 0 0 0 0 0 0 0 0 0 0 0 0 0 0 0 0 0 0 0 0 0 0 0 0 0 0 0 0 0 0 0 0 0 0 0 0 0 0 0 0 0 0 0 0 0 0 0 0 0 0 0 0 0 0 0 0 0 0 0 0 0 0 0 0 0 0 0 0 0 0 0 0 0 0 0 0 0 0 0 0 0 0 0 0 0 0 0 0 0 0 0 0 0 0 0 0 0 0 0 0 0 0 0 0 0 0 0 0 0 0 0 0 0 0 0 0 0 0 0 0 0 0 0 0 0 0 0 0 0 0 0 0 0 0 0 0 0 0 0 0 0 0 0 0 0 0 0 0 0 0 0 0 0 0 0 0 0 0 0 0 0 0 0 0 0 0 0 0 0 0 0 0 0 0 0 0 0 0 0 0 0 0 0 0 0 0 0 0 0 0 0 0 0 0 0 0 0 0 0 0 0 0 0 0 0 0 0 0 0 0 0 0 0 0 0 0 0 0 0 0 0 0 0 0 0 0 0 0 0 0 0 0 0 0 0 0 0 0 0 0 0 0 0 0 0 0 0 0 0 0 0 0 0 0 0 0 0 0 0 0 0 0 0 0 0 0 0 0 0 0 0 0 0 0 0 0 0 0 0 0 0 0 0 0 0 0 0 0 0 0 0 0 0 0 0 0 0 0 0 0 0 0 0 0 0 0 0 0 0 0 0 0 0 0 0 0 0 0 0 0 0 0 0 0 0 0 0 0 0 0 0 0 0 0 0 0 0 0 0 0 0 0 0 0 0 0 0 0 0 0 0 0 0 0 0 0 0 0 0 0 0 0 0 0 0 0 0 0 0 0 0 0 0 0 0 0 0 0 0 0 0 0 0 0 0 0 0 0 0 0 0 0 0 0 0 0 0 0 0 0 0 0 0 0 0 0 0 0 0 0 0 0 0 0 0 0 0 0 0 0 0 0 0 0 0 0 0 0 0 0 0 0 0 0 0 0 0 0 0 0 0 0 0 0 0 0 0 0 0 0 0 0 0 0 0 0 0 0 0 0 0 0 0 0 0 0 0 0 0 0 0 0 0 0 0 0 0 0 0 0 0 0 0 0 0 0 0 0 0 0 0 0 0 0 0 0 0 0 0 0 0 0 0 0 0 0 0 0 0 0 0 0 0 0 0 0 0 0 0 0 0 0 0 0 0 0 0 0 0 0 0 0 0 0 0 0 0 0 0 0 0 0 0 0 0 0 0 0 0 0 0 0 0 0 0 0 0 0 0 0 0 0 0 0 0 0 0 0 0 0.00566251 0.00566251 0.00566251 0.00566251 0.00566251 0.00566251 0.00566251 0.00566251 0.00566251 0.00566251 0.00566251 0.00566251 0.00566251 0.00566251 0.00566251 0.00566251 0.00566251 0.00566251 0.00566251 0.00566251 0.00566251 0.00566251 0.00566251 0.00566251 0.00566251 0.00566251 0.00566251 0.00566251 0.00566251 0.00566251 0.00566251 0.00566251 0.00566251 0.00566251 0.00566251 0.00566251 0.00566251 0.00566251 0.00566251 0.00566251 0.00566251 0.00566251 0.00566251 0.00566251 0.00566251 0.00566251 0.00566251 0.00566251 0.00566251 0.00566251 0.00566251 0.00566251 0.00566251 0.00566251 0.00566251 0.00566251 0.00566251 0.00566251 0.00566251 0.00566251 0.00566251 0.00566251 0.00566251 0.00566251 0.00566251 0.00566251 0.00566251 0.00566251 0.00566251 0.00566251 0.00566251 0.00566251 0.00566251 0.00566251 0.00566251 0.00566251 0.00566251 0.00566251 0.00566251 0.00566251 0.00566251 0.00566251 0.00566251 0.00566251 0.00566251 0.00566251 0.00566251 0.00566251 0.00566251 
        </DataArray>
        <DataArray type="Float32" Name="ca_cyt" NumberOfComponents="1" format="ascii">
5e-08 5e-08 5e-08 5e-08 5e-08 5e-08 5e-08 5e-08 5e-08 5e-08 5e-08 5e-08 5e-08 5e-08 5e-08 5e-08 5e-08 5e-08 5e-08 5e-08 5e-08 5e-08 5e-08 5e-08 5e-08 5e-08 5e-08 5e-08 5e-08 5e-08 5e-08 5e-08 5e-08 5e-08 5e-08 5e-08 5e-08 5e-08 5e-08 5e-08 5e-08 5e-08 5e-08 5e-08 5e-08 5e-08 5e-08 5e-08 5e-08 5e-08 5e-08 5e-08 5e-08 5e-08 5e-08 5e-08 5e-08 5e-08 5e-08 5e-08 5e-08 5e-08 5e-08 5e-08 5e-08 5e-08 5e-08 5e-08 5e-08 5e-08 5e-08 5e-08 5e-08 5e-08 5e-08 5e-08 5e-08 5e-08 5e-08 5e-08 5e-08 5e-08 5e-08 5e-08 5e-08 5e-08 5e-08 5e-08 5e-08 5e-08 5e-08 5e-08 5e-08 5e-08 5e-08 5e-08 5e-08 5e-08 5e-08 5e-08 5e-08 5e-08 5e-08 5e-08 5e-08 5e-08 5e-08 5e-08 5e-08 5e-08 5e-08 5e-08 5e-08 5e-08 5e-08 5e-08 5e-08 5e-08 5e-08 5e-08 5e-08 5e-08 5e-08 5e-08 5e-08 5e-08 5e-08 5e-08 5e-08 5e-08 5e-08 5e-08 5e-08 5e-08 5e-08 5e-08 5e-08 5e-08 5e-08 5e-08 5e-08 5e-08 5e-08 5e-08 5e-08 5e-08 5e-08 5e-08 5e-08 5e-08 5e-08 5e-08 5e-08 5e-08 5e-08 5e-08 5e-08 5e-08 5e-08 5e-08 5e-08 5e-08 5e-08 5e-08 5e-08 5e-08 5e-08 5e-08 5e-08 5e-08 5e-08 5e-08 5e-08 5e-08 5e-08 5e-08 5e-08 5e-08 5e-08 5e-08 5e-08 5e-08 5e-08 5e-08 5e-08 5e-08 5e-08 5e-08 5e-08 5e-08 5e-08 5e-08 5e-08 5e-08 5e-08 5e-08 5e-08 5e-08 5e-08 5e-08 5e-08 5e-08 5e-08 5e-08 5e-08 5e-08 5e-08 5e-08 5e-08 5e-08 5e-08 5e-08 5e-08 5e-08 5e-08 5e-08 5e-08 5e-08 5e-08 5e-08 5e-08 5e-08 5e-08 5e-08 5e-08 5e-08 5e-08 5e-08 5e-08 5e-08 5e-08 5e-08 5e-08 5e-08 5e-08 5e-08 5e-08 5e-08 5e-08 5e-08 5e-08 5e-08 5e-08 5e-08 5e-08 5e-08 5e-08 5e-08 5e-08 5e-08 5e-08 5e-08 5e-08 5e-08 5e-08 5e-08 5e-08 5e-08 5e-08 5e-08 5e-08 5e-08 5e-08 5e-08 5e-08 5e-08 5e-08 5e-08 5e-08 5e-08 5e-08 5e-08 5e-08 5e-08 5e-08 5e-08 5e-08 5e-08 5e-08 5e-08 5e-08 5e-08 5e-08 5e-08 5e-08 5e-08 5e-08 5e-08 5e-08 5e-08 5e-08 5e-08 5e-08 5e-08 5e-08 5e-08 5e-08 5e-08 5e-08 5e-08 5e-08 5e-08 5e-08 5e-08 5e-08 5e-08 5e-08 5e-08 5e-08 5e-08 5e-08 5e-08 5e-08 5e-08 5e-08 5e-08 5e-08 5e-08 5e-08 5e-08 5e-08 5e-08 5e-08 5e-08 5e-08 5e-08 5e-08 5e-08 5e-08 5e-08 5e-08 5e-08 5e-08 5e-08 5e-08 5e-08 5e-08 5e-08 5e-08 5e-08 5e-08 5e-08 5e-08 5e-08 5e-08 5e-08 5e-08 5e-08 5e-08 5e-08 5e-08 5e-08 5e-08 5e-08 5e-08 5e-08 5e-08 5e-08 5e-08 5e-08 5e-08 5e-08 5e-08 5e-08 5e-08 5e-08 5e-08 5e-08 5e-08 5e-08 5e-08 5e-08 5e-08 5e-08 5e-08 5e-08 5e-08 5e-08 5e-08 5e-08 5e-08 5e-08 5e-08 5e-08 5e-08 5e-08 5e-08 5e-08 5e-08 5e-08 5e-08 5e-08 5e-08 5e-08 5e-08 5e-08 5e-08 5e-08 5e-08 5e-08 5e-08 5e-08 5e-08 5e-08 5e-08 5e-08 5e-08 5e-08 5e-08 5e-08 5e-08 5e-08 5e-08 5e-08 5e-08 5e-08 5e-08 5e-08 5e-08 5e-08 5e-08 5e-08 5e-08 5e-08 5e-08 5e-08 5e-08 5e-08 5e-08 5e-08 5e-08 5e-08 5e-08 5e-08 5e-08 5e-08 5e-08 5e-08 5e-08 5e-08 5e-08 5e-08 5e-08 5e-08 5e-08 5e-08 5e-08 5e-08 5e-08 5e-08 5e-08 5e-08 5e-08 5e-08 5e-08 5e-08 5e-08 5e-08 5e-08 5e-08 5e-08 5e-08 5e-08 5e-08 5e-08 5e-08 5e-08 5e-08 5e-08 5e-08 5e-08 5e-08 5e-08 5e-08 5e-08 5e-08 5e-08 5e-08 5e-08 5e-08 5e-08 5e-08 5e-08 5e-08 5e-08 5e-08 5e-08 5e-08 5e-08 5e-08 5e-08 5e-08 5e-08 5e-08 5e-08 5e-08 5e-08 5e-08 5e-08 5e-08 5e-08 5e-08 5e-08 5e-08 5e-08 5e-08 5e-08 5e-08 5e-08 5e-08 5e-08 5e-08 5e-08 5e-08 5e-08 5e-08 5e-08 5e-08 5e-08 5e-08 5e-08 5e-08 5e-08 5e-08 5e-08 5e-08 5e-08 5e-08 5e-08 5e-08 5e-08 5e-08 5e-08 5e-08 5e-08 5e-08 5e-08 5e-08 5e-08 5e-08 5e-08 5e-08 5e-08 5e-08 5e-08 5e-08 5e-08 5e-08 5e-08 5e-08 5e-08 5e-08 5e-08 5e-08 5e-08 5e-08 5e-08 5e-08 5e-08 5e-08 5e-08 5e-08 5e-08 5e-08 5e-08 5e-08 5e-08 5e-08 5e-08 5e-08 5e-08 5e-08 5e-08 5e-08 5e-08 5e-08 5e-08 5e-08 5e-08 5e-08 5e-08 5e-08 5e-08 5e-08 5e-08 5e-08 5e-08 5e-08 5e-08 5e-08 5e-08 5e-08 5e-08 5e-08 5e-08 5e-08 5e-08 5e-08 5e-08 5e-08 5e-08 5e-08 5e-08 5e-08 5e-08 5e-08 5e-08 5e-08 5e-08 5e-08 5e-08 5e-08 5e-08 5e-08 5e-08 5e-08 5e-08 5e-08 5e-08 5e-08 5e-08 5e-08 5e-08 5e-08 5e-08 5e-08 5e-08 5e-08 5e-08 5e-08 5e-08 5e-08 5e-08 5e-08 5e-08 5e-08 5e-08 5e-08 5e-08 5e-08 5e-08 5e-08 5e-08 5e-08 5e-08 5e-08 5e-08 5e-08 5e-08 5e-08 5e-08 5e-08 5e-08 5e-08 5e-08 5e-08 5e-08 5e-08 5e-08 5e-08 5e-08 5e-08 5e-08 5e-08 5e-08 5e-08 5e-08 5e-08 5e-08 5e-08 5e-08 5e-08 5e-08 5e-08 5e-08 5e-08 5e-08 5e-08 5e-08 5e-08 5e-08 5e-08 5e-08 5e-08 5e-08 5e-08 5e-08 5e-08 5e-08 5e-08 5e-08 5e-08 5e-08 5e-08 5e-08 5e-08 5e-08 5e-08 5e-08 5e-08 5e-08 5e-08 5e-08 5e-08 5e-08 5e-08 5e-08 5e-08 5e-08 5e-08 5e-08 5e-08 5e-08 5e-08 5e-08 5e-08 5e-08 5e-08 5e-08 5e-08 5e-08 5e-08 5e-08 5e-08 5e-08 5e-08 5e-08 5e-08 5e-08 5e-08 5e-08 5e-08 5e-08 5e-08 5e-08 5e-08 5e-08 5e-08 5e-08 5e-08 5e-08 5e-08 5e-08 5e-08 5e-08 5e-08 5e-08 5e-08 5e-08 5e-08 5e-08 5e-08 5e-08 5e-08 5e-08 5e-08 5e-08 5e-08 5e-08 5e-08 5e-08 5e-08 5e-08 5e-08 5e-08 5e-08 5e-08 5e-08 5e-08 5e-08 5e-08 5e-08 5e-08 5e-08 5e-08 5e-08 5e-08 5e-08 5e-08 5e-08 5e-08 5e-08 5e-08 5e-08 5e-08 5e-08 5e-08 5e-08 5e-08 5e-08 5e-08 5e-08 5e-08 5e-08 5e-08 5e-08 5e-08 5e-08 5e-08 5e-08 5e-08 5e-08 5e-08 5e-08 5e-08 5e-08 5e-08 5e-08 5e-08 5e-08 5e-08 5e-08 5e-08 5e-08 5e-08 5e-08 5e-08 5e-08 5e-08 5e-08 5e-08 5e-08 5e-08 5e-08 5e-08 5e-08 5e-08 5e-08 5e-08 5e-08 5e-08 5e-08 5e-08 5e-08 5e-08 5e-08 5e-08 5e-08 5e-08 5e-08 5e-08 5e-08 5e-08 5e-08 5e-08 5e-08 5e-08 5e-08 5e-08 
        </DataArray>
        <DataArray type="Float32" Name="ca_er" NumberOfComponents="1" format="ascii">
0.00025 0.00025 0.00025 0.00025 0.00025 0.00025 0.00025 0.00025 0.00025 0.00025 0.00025 0.00025 0.00025 0.00025 0.00025 0.00025 0.00025 0.00025 0.00025 0.00025 0.00025 0.00025 0.00025 0.00025 0.00025 0.00025 0.00025 0.00025 0.00025 0.00025 0.00025 0.00025 0.00025 0.00025 0.00025 0.00025 0.00025 0.00025 0.00025 0.00025 0.00025 0.00025 0.00025 0.00025 0.00025 0.00025 0.00025 0.00025 0.00025 0.00025 0.00025 0.00025 0.00025 0.00025 0.00025 0.00025 0.00025 0.00025 0.00025 0.00025 0.00025 0.00025 0.00025 0.00025 0.00025 0.00025 0.00025 0.00025 0.00025 0.00025 0.00025 0.00025 0.00025 0.00025 0.00025 0.00025 0.00025 0.00025 0.00025 0.00025 0.00025 0.00025 0.00025 0.00025 0.00025 0.00025 0.00025 0.00025 0.00025 0.00025 0.00025 0.00025 0.00025 0.00025 0.00025 0.00025 0.00025 0.00025 0.00025 0.00025 0.00025 0.00025 0.00025 0.00025 0.00025 0.00025 0.00025 0.00025 0.00025 0.00025 0.00025 0.00025 0.00025 0.00025 0.00025 0.00025 0.00025 0.00025 0.00025 0.00025 0.00025 0.00025 0.00025 0.00025 0.00025 0.00025 0.00025 0.00025 0.00025 0.00025 0.00025 0.00025 0.00025 0.00025 0.00025 0.00025 0.00025 0.00025 0.00025 0.00025 0.00025 0.00025 0.00025 0.00025 0.00025 0.00025 0.00025 0.00025 0.00025 0.00025 0.00025 0.00025 0.00025 0.00025 0.00025 0.00025 0.00025 0.00025 0.00025 0.00025 0.00025 0.00025 0.00025 0.00025 0.00025 0.00025 0.00025 0.00025 0.00025 0.00025 0.00025 0.00025 0.00025 0.00025 0.00025 0.00025 0.00025 0.00025 0.00025 0.00025 0.00025 0.00025 0.00025 0.00025 0.00025 0.00025 0.00025 0.00025 0.00025 0.00025 0.00025 0.00025 0.00025 0.00025 0.00025 0.00025 0.00025 0.00025 0.00025 0.00025 0.00025 0.00025 0.00025 0.00025 0.00025 0.00025 0.00025 0.00025 0.00025 0.00025 0.00025 0.00025 0.00025 0.00025 0.00025 0.00025 0.00025 0.00025 0.00025 0.00025 0.00025 0.00025 0.00025 0.00025 0.00025 0.00025 0.00025 0.00025 0.00025 0.00025 0.00025 0.00025 0.00025 0.00025 0.00025 0.00025 0.00025 0.00025 0.00025 0.00025 0.00025 0.00025 0.00025 0.00025 0.00025 0.00025 0.00025 0.00025 0.00025 0.00025 0.00025 0.00025 0.00025 0.00025 0.00025 0.00025 0.00025 0.00025 0.00025 0.00025 0.00025 0.00025 0.00025 0.00025 0.00025 0.00025 0.00025 0.00025 0.00025 0.00025 0.00025 0.00025 0.00025 0.00025 0.00025 0.00025 0.00025 0.00025 0.00025 0.00025 0.00025 0.00025 0.00025 0.00025 0.00025 0.00025 0.00025 0.00025 0.00025 0.00025 0.00025 0.00025 0.00025 0.00025 0.00025 0.00025 0.00025 0.00025 0.00025 0.00025 0.00025 0.00025 0.00025 0.00025 0.00025 0.00025 0.00025 0.00025 0.00025 0.00025 0.00025 0.00025 0.00025 0.00025 0.00025 0.00025 0.00025 0.00025 0.00025 0.00025 0.00025 0.00025 0.00025 0.00025 0.00025 0.00025 0.00025 0.00025 0.00025 0.00025 0.00025 0.00025 0.00025 0.00025 0.00025 0.00025 0.00025 0.00025 0.00025 0.00025 0.00025 0.00025 0.00025 0.00025 0.00025 0.00025 0.00025 0.00025 0.00025 0.00025 0.00025 0.00025 0.00025 0.00025 0.00025 0.00025 0.00025 0.00025 0.00025 0.00025 0.00025 0.00025 0.00025 0.00025 0.00025 0.00025 0.00025 0.00025 0.00025 0.00025 0.00025 0.00025 0.00025 0.00025 0.00025 0.00025 0.00025 0.00025 0.00025 0.00025 0.00025 0.00025 0.00025 0.00025 0.00025 0.00025 0.00025 0.00025 0.00025 0.00025 0.00025 0.00025 0.00025 0.00025 0.00025 0.00025 0.00025 0.00025 0.00025 0.00025 0.00025 0.00025 0.00025 0.00025 0.00025 0.00025 0.00025 0.00025 0.00025 0.00025 0.00025 0.00025 0.00025 0.00025 0.00025 0.00025 0.00025 0.00025 0.00025 0.00025 0.00025 0.00025 0.00025 0.00025 0.00025 0.00025 0.00025 0.00025 0.00025 0.00025 0.00025 0.00025 0.00025 0.00025 0.00025 0.00025 0.00025 0.00025 0.00025 0.00025 0.00025 0.00025 0.00025 0.00025 0.00025 0.00025 0.00025 0.00025 0.00025 0.00025 0.00025 0.00025 0.00025 0.00025 0.00025 0.00025 0.00025 0.00025 0.00025 0.00025 0.00025 0.00025 0.00025 0.00025 0.00025 0.00025 0.00025 0.00025 0.00025 0.00025 0.00025 0.00025 0.00025 0.00025 0.00025 0.00025 0.00025 0.00025 0.00025 0.00025 0.00025 0.00025 0.00025 0.00025 0.00025 0.00025 0.00025 0.00025 0.00025 0.00025 0.00025 0.00025 0.00025 0.00025 0.00025 0.00025 0.00025 0.00025 0.00025 0.00025 0.00025 0.00025 0.00025 0.00025 0.00025 0.00025 0.00025 0.00025 0.00025 0.00025 0.00025 0.00025 0.00025 0.00025 0.00025 0.00025 0.00025 0.00025 0.00025 0.00025 0.00025 0.00025 0.00025 0.00025 0.00025 0.00025 0.00025 0.00025 0.00025 0.00025 0.00025 0.00025 0.00025 0.00025 0.00025 0.00025 0.00025 0.00025 0.00025 0.00025 0.00025 0.00025 0.00025 0.00025 0.00025 0.00025 0.00025 0.00025 0.00025 0.00025 0.00025 0.00025 0.00025 0.00025 0.00025 0.00025 0.00025 0.00025 0.00025 0.00025 0.00025 0.00025 0.00025 0.00025 0.00025 0.00025 0.00025 0.00025 0.00025 0.00025 0.00025 0.00025 0.00025 0.00025 0.00025 0.00025 0.00025 0.00025 0.00025 0.00025 0.00025 0.00025 0.00025 0.00025 0.00025 0.00025 0.00025 0.00025 0.00025 0.00025 0.00025 0.00025 0.00025 0.00025 0.00025 0.00025 0.00025 0.00025 0.00025 0.00025 0.00025 0.00025 0.00025 0.00025 0.00025 0.00025 0.00025 0.00025 0.00025 0.00025 0.00025 0.00025 0.00025 0.00025 0.00025 0.00025 0.00025 0.00025 0.00025 0.00025 0.00025 0.00025 0.00025 0.00025 0.00025 0.00025 0.00025 0.00025 0.00025 0.00025 0.00025 0.00025 0.00025 0.00025 0.00025 0.00025 0.00025 0.00025 0.00025 0.00025 0.00025 0.00025 0.00025 0.00025 0.00025 0.00025 0.00025 0.00025 0.00025 0.00025 0.00025 0.00025 0.00025 0.00025 0.00025 0.00025 0.00025 0.00025 0.00025 0.00025 0.00025 0.00025 0.00025 0.00025 0.00025 0.00025 0.00025 0.00025 0.00025 0.00025 0.00025 0.00025 0.00025 0.00025 0.00025 0.00025 0.00025 0.00025 0.00025 0.00025 0.00025 0.00025 0.00025 0.00025 0.00025 0.00025 0.00025 0.00025 0.00025 0.00025 0.00025 0.00025 0.00025 0.00025 0.00025 0.00025 0.00025 0.00025 0.00025 0.00025 0.00025 0.00025 0.00025 0.00025 0.00025 0.00025 0.00025 0.00025 0.00025 0.00025 0.00025 0.00025 0.00025 0.00025 0.00025 0.00025 0.00025 0.00025 0.00025 0.00025 0.00025 0.00025 0.00025 0.00025 0.00025 0.00025 0.00025 0.00025 0.00025 0.00025 0.00025 0.00025 0.00025 0.00025 0.00025 0.00025 0.00025 0.00025 0.00025 0.00025 0.00025 0.00025 0.00025 0.00025 0.00025 0.00025 0.00025 0.00025 0.00025 0.00025 0.00025 0.00025 0.00025 0.00025 0.00025 0.00025 0.00025 0.00025 0.00025 0.00025 0.00025 0.00025 0.00025 0.00025 0.00025 0.00025 0.00025 0.00025 0.00025 0.00025 0.00025 0.00025 0.00025 0.00025 0.00025 0.00025 0.00025 0.00025 0.00025 0.00025 0.00025 0.00025 0.00025 0.00025 0.00025 0.00025 0.00025 0.00025 0.00025 0.00025 0.00025 0.00025 0.00025 0.00025 0.00025 0.00025 0.00025 0.00025 0.00025 0.00025 0.00025 0.00025 0.00025 0.00025 0.00025 0.00025 0.00025 0.00025 0.00025 0.00025 0.00025 0.00025 0.00025 0.00025 0.00025 0.00025 0.00025 0.00025 0.00025 0.00025 0.00025 0.00025 0.00025 0.00025 0.00025 0.00025 0.00025 0.00025 0.00025 0.00025 0.00025 0.00025 0.00025 0.00025 0.00025 0.00025 0.00025 0.00025 0.00025 0.00025 0.00025 0.00025 0.00025 0.00025 0.00025 0.00025 0.00025 0.00025 0.00025 
        </DataArray>
        <DataArray type="Float32" Name="clb" NumberOfComponents="1" format="ascii">