<?xml version="1.0"?>
<VTKFile type="UnstructuredGrid" version="0.1" byte_order="LittleEndian">
  <Time timestep="0"/>
  <UnstructuredGrid>
    <Piece NumberOfPoints="24" NumberOfCells="23">
      <Points>
        <DataArray type="Float32" NumberOfComponents="3" format="ascii">
-0.5143 0.2242 0 0.3426 18.4829 2.1245 6.0272 35.5328 -2.8961 8.8668 70.74 2.8706 4.3061 118.9 8.3743 3.2321 168.79 17.7415 9.8394 215.428 25.7752 68.3031 308.296 -11.5635 14.4793 228.881 26.7749 51.3313 331.215 59.143 -18.765 299.232 75.1323 1.0511 216.567 23.9248 -6.3856 293.336 -34.0685 -51.3565 293.77 39.0875 -43.5278 105.257 39.6291 -72.9081 145.739 26.014 22.0932 63.0117 -36.5668 65.0216 126.989 -57.7363 61.8152 81.9506 -98.4625 -7.5803 32.7843 20.1268 -13.806 87.5312 43.8134 -0.0193 54.2944 44.7091 40.8975 105.23 63.1935 49.8325 99.4419 67.6464 
        </DataArray>
      </Points>
      <Cells>
        <DataArray type="Int32" Name="connectivity" format="ascii">
0 1 1 2 2 3 3 4 4 5 5 6 6 7 6 8 8 9 8 10 5 11 11 12 11 13 4 14 3 15 2 16 16 17 16 18 1 19 19 20 19 21 21 22 21 23 
        </DataArray>
        <DataArray type="Int32" Name="offsets" format="ascii">
2 4 6 8 10 12 14 16 18 20 22 24 26 28 30 32 34 36 38 40 42 44 46 
        </DataArray>
        <DataArray type="Int8" Name="types" format="ascii">
3 3 3 3 3 3 3 3 3 3 3 3 3 3 3 3 3 3 3 3 3 3 3 
        </DataArray>
      </Cells>
      <PointData>
        <DataArray type="Float32" Name="calcium" NumberOfComponents="1" format="ascii">
5e-08 5e-08 5e-08 5e-08 5e-08 5e-08 5e-08 5e-08 5e-08 5e-08 5e-08 5e-08 5e-08 5e-08 5e-08 5e-08 5e-08 5e-08 5e-08 5e-08 5e-08 5e-08 5e-08 5e-08 
        </DataArray>
      </PointData>
    </Piece>
  </UnstructuredGrid>
</VTKFile>
