<?xml version="1.0"?>
<VTKFile type="UnstructuredGrid" version="0.1" byte_order="LittleEndian">
  <Time timestep="0"/>
  <UnstructuredGrid>
    <Piece NumberOfPoints="67" NumberOfCells="66">
      <Points>
        <DataArray type="Float32" NumberOfComponents="3" format="ascii">
-0.5143 0.2242 0 -11.6499 -7.4541 11.5885 -26.5325 -11.4508 21.7057 -89.7154 -67.1763 42.3395 -58.3742 12.7161 28.8758 -87.1454 35.6896 34.7072 -101.754 42.5783 35.9973 -107.153 44.9571 36.5205 -82.5674 33.598 35.542 -18.1526 -9.7232 19.718 -15.784 -10.2761 23.303 1.3489 -79.5121 13.6566 10.064 -152.734 4.5593 8.3623 -147.446 6.6359 4.9275 20.8752 28.7643 45.0665 97.1683 64.9132 83.2141 78.3095 79.6665 -15.7757 10.5302 24.917 -22.8489 68.7391 19.1769 -39.6877 117.816 20.9513 -46.9907 126.392 19.6733 -14.4741 61.4145 17.5417 -7.3209 144.924 -3.0519 -7.6206 134.349 1.0474 -11.2366 -10.0169 -4.0808 -23.3374 -21.3299 -15.2892 -33.0795 -32.8287 -18.8379 -21.9693 -57.0318 -20.3153 -4.0017 -125.21 -21.7117 -8.1295 -130.61 -6.2861 -52.1012 -45.2955 -24.7197 -84.854 -94.7618 -50.8843 -116.902 -65.7102 -95.6127 -66.9865 -27.3048 -33.5061 -107.594 -42.105 -45.289 -110.268 -23.1316 -48.2855 -132.542 -18.347 -60.5459 -158.319 -26.6235 -63.2914 -39.0387 25.3598 -39.6132 10.5045 -22.5513 19.5028 22.4431 -37.0588 27.383 85.646 -137.134 29.7742 67.5453 -3.3506 49.0151 113.076 8.7784 58.2629 122.269 1.7669 70.712 144.809 1.1286 86.0144 155.398 2.5625 92.5151 19.1579 -51.3163 61.3027 6.7788 -5.698 -4.0072 17.2953 -4.5854 -9.3879 39.2305 -3.6629 -8.6748 94.3922 -4.2956 7.9412 171.921 -25.1618 96.0642 145.796 11.8377 24.7844 81.5874 -41.1669 -6.6347 138.607 -96.2475 -11.89 112.48 -71.2789 -17.0171 35.6496 -12.2658 -18.4505 110.414 -37.7801 -37.1511 170.27 -41.3309 -54.8127 164.199 -42.6564 -49.5181 79.3107 -93.1531 -10.0243 19.1485 -9.799 -15.9391 29.3403 -71.6143 -75.1648 28.2151 -9.78 -33.8403 30.943 2.7017 -73.035 78.4066 9.9541 -47.6674 
        </DataArray>
      </Points>
      <Cells>
        <DataArray type="Int32" Name="connectivity" format="ascii">
0 1 1 2 2 3 2 4 4 5 5 6 5 7 4 8 1 9 9 10 10 11 11 12 11 13 10 14 14 15 14 16 9 17 17 18 18 19 18 20 17 21 21 22 21 23 0 24 24 25 25 26 26 27 27 28 27 29 26 30 30 31 30 32 25 33 33 34 33 35 35 36 35 37 24 38 0 39 39 40 40 41 40 42 42 43 42 44 44 45 44 46 39 47 0 48 48 49 49 50 50 51 51 52 51 53 50 54 54 55 54 56 49 57 57 58 58 59 58 60 57 61 48 62 62 63 62 64 64 65 64 66 
        </DataArray>
        <DataArray type="Int32" Name="offsets" format="ascii">
2 4 6 8 10 12 14 16 18 20 22 24 26 28 30 32 34 36 38 40 42 44 46 48 50 52 54 56 58 60 62 64 66 68 70 72 74 76 78 80 82 84 86 88 90 92 94 96 98 100 102 104 106 108 110 112 114 116 118 120 122 124 126 128 130 132 
        </DataArray>
        <DataArray type="Int8" Name="types" format="ascii">
3 3 3 3 3 3 3 3 3 3 3 3 3 3 3 3 3 3 3 3 3 3 3 3 3 3 3 3 3 3 3 3 3 3 3 3 3 3 3 3 3 3 3 3 3 3 3 3 3 3 3 3 3 3 3 3 3 3 3 3 3 3 3 3 3 3 
        </DataArray>
      </Cells>
      <PointData>
        <DataArray type="Float32" Name="calcium" NumberOfComponents="1" format="ascii">
5e-08 5e-08 5e-08 5e-08 5e-08 5e-08 5e-08 5e-08 5e-08 5e-08 5e-08 5e-08 5e-08 5e-08 5e-08 5e-08 5e-08 5e-08 5e-08 5e-08 5e-08 5e-08 5e-08 5e-08 5e-08 5e-08 5e-08 5e-08 5e-08 5e-08 5e-08 5e-08 5e-08 5e-08 5e-08 5e-08 5e-08 5e-08 5e-08 5e-08 5e-08 5e-08 5e-08 5e-08 5e-08 5e-08 5e-08 5e-08 5e-08 5e-08 5e-08 5e-08 5e-08 5e-08 5e-08 5e-08 5e-08 5e-08 5e-08 5e-08 5e-08 5e-08 5e-08 5e-08 5e-08 5e-08 5e-08 
        </DataArray>
      </PointData>
    </Piece>
  </UnstructuredGrid>
</VTKFile>
