<?xml version="1.0"?>
<VTKFile type="UnstructuredGrid" version="0.1" byte_order="LittleEndian">
  <Time timestep="0.00025"/>
  <UnstructuredGrid>
    <Piece NumberOfPoints="2419" NumberOfCells="2418">
      <Points>
        <DataArray type="Float32" NumberOfComponents="3" format="ascii">
-0.8015 -1.2678 0 -3.2062 -5.0715 0 -5.0765 -8.0299 0 -6.4123 -10.1429 0.0262 -8.0143 -12.677 0.1283 -8.8146 -13.9429 0.1666 -4.665 -9.0685 -0.0051 -3.3078 -10.3003 -0.0154 -1.9532 -11.5348 -0.0257 -0.7426 -12.7803 -0.0459 0.4334 -13.9291 -0.0935 1.4466 -15.2471 -0.185 2.1326 -22.0656 -2.5814 3.5554 -27.7322 1.4257 6.2653 -35.3706 6.4938 8.6107 -41.3653 6.7974 8.3143 -40.7868 6.7183 15.4942 -50.7521 4.9673 19.5156 -57.7327 7.1557 22.8794 -62.2772 10.5055 24.2121 -63.3654 12.9105 26.4745 -64.8588 13.9793 27.7984 -65.9637 14.1964 29.0535 -67.1183 14.3116 35.2991 -71.3414 15.5234 42.1418 -73.5431 16.2509 45.9552 -78.4006 18.2802 43.1478 -69.6198 16.0595 47.2069 -85.1931 18.1557 43.9697 -65.4565 15.7766 45.9541 -87.9136 17.638 50.8433 -86.5895 17.9535 45.0982 -63.5211 16.1223 44.0154 -65.7095 15.6069 44.0102 -66.3692 14.8486 44.1586 -67.2141 14.3402 44.6639 -89.9679 15.7857 54.6562 -87.9717 17.7384 45.5333 -62.1584 17.8534 46.0845 -93.1486 14.7482 37.1249 -94.0849 14.9718 61.2357 -92.3404 14.5899 72.1897 -102.125 21.0158 85.4059 -115.728 22.6939 96.1046 -123.015 27.5352 106.388 -128.714 28.8233 50.7937 -61.6079 11.0465 63.7547 -58.5312 9.7712 75.049 -60.4617 16.3877 83.0968 -60.7333 25.9161 91.3447 -63.64 26.8113 46.1286 -55.224 14.5026 37.6417 -45.2763 18.4222 22.8448 -43.0894 21.8828 54.7481 -88.0637 17.871 47.7449 -96.3203 13.6398 28.7834 -94.5812 17.274 111.882 -135.953 29.1893 96.2419 -66.2233 31.6259 52.1518 -103.961 11.3242 58.8833 -119.603 12.0998 62.6461 -133.023 18.7767 68.7987 -150.479 18.27 75.478 -168.407 16.0379 20.7736 -99.7756 22.2184 28.4843 -94.572 17.6083 119.352 -141.089 32.8119 133.387 -151.046 27.4274 140.464 -156.855 25.7903 152.312 -169.127 29.8767 161.549 -182.164 26.4505 106.408 -69.1292 24.6495 123.156 -72.5629 28.9251 143.196 -75.9244 28.8652 47.5528 -96.076 13.5667 47.0015 -95.2803 13.5986 46.7344 -94.3274 13.6342 97.3169 -66.6493 31.3652 99.3506 -67.4491 30.897 101.384 -68.2489 30.4289 103.418 -69.0488 29.9607 105.452 -69.8486 29.4925 104.935 -70.7499 28.9784 104.614 -70.6388 26.7694 96.937 -66.473 30.8282 78.4149 -177.363 14.5582 14.3097 -106.614 20.8227 28.3969 -94.5693 18.0599 164.857 -185.736 20.1853 80.7201 -186.762 13.7215 86.0397 -202.152 18.4658 88.9594 -219.837 14.0604 92.3483 -238.171 14.3683 94.4112 -256.154 16.5595 11.0172 -108.561 18.7473 5.909 -113.129 24.1737 4.7649 -121.35 27.2758 15.7442 -115.503 24.1983 21.9499 -133.986 25.1312 26.8898 -147.439 25.6301 28.6429 -155.127 32.7495 28.6017 -167.8 33.6747 24.075 -93.3058 9.4058 15.5128 -90.8025 -8.4542 -0.0475 -89.6597 -13.0268 -13.9393 -94.7328 -4.0497 -31.0534 -101.55 -4.3571 167.376 -187.926 20.8501 178.017 -198.42 27.7655 190.588 -201.853 17.5881 198.476 -209.037 23.2285 206.498 -222.397 29.9785 27.7081 -94.2683 18.8592 26.226 -93.6204 19.8024 24.7439 -92.9726 20.7456 23.2618 -92.3248 21.6888 23.8038 -92.3745 21.7835 95.2227 -265.77 17.0719 2.7577 -126.043 26.0848 30.9775 -170.205 31.4202 -40.2348 -104.291 -5.8163 213.724 -226.788 32.011 95.282 -267.486 16.3224 95.3059 -280.363 10.9397 82.392 -291.816 13.1552 66.6134 -301.813 13.5179 55.8832 -314.84 17.1156 -3.9067 -133.789 26.1237 -16.2236 -149.084 26.7198 -17.7909 -159.622 22.5822 -30.8645 -168.285 21.4997 -40.3768 -181.216 24.3391 -1.3141 -131.273 34.9295 33.7647 -170.904 21.6446 35.3986 -176.656 11.4651 39.8278 -180.409 -7.3747 -48.3446 -108.109 -4.4853 -60.3769 -111.08 -1.1234 -77.9711 -113.51 3.296 -92.0999 -121.974 4.6219 -105.683 -132.44 0.8972 216.449 -231.236 29.6641 219.359 -241.667 28.5636 217.692 -257.484 32.1794 212.796 -271.781 39.8533 208.834 -287.714 39.3838 48.1056 -320.111 18.1187 -45.0792 -189.141 27.4734 -111.996 -139.102 2.509 42.621 -325.314 19.0805 32.9705 -340.761 23.6528 23.9361 -354.804 21.203 9.6225 -366.753 22.7517 -4.6074 -378.307 21.4152 -50.8898 -195.89 27.7601 -59.8432 -207.291 27.0024 -63.453 -209.238 15.4152 -64.2909 -212.477 11.1044 -69.7086 -217.465 14.9612 -119.873 -141.357 5.959 -132.811 -151.16 6.979 -147.295 -155.542 4.0924 -153.368 -158.273 7.6335 -168.793 -159.691 7.6228 -10.9476 -383.606 22.9817 -16.9731 -389.755 18.9726 -27.5688 -401.121 14.9527 -39.573 -411.73 14.9204 -40.6381 -420.464 25.2112 -40.4069 -426.641 14.8914 -40.36 -432.747 17.7175 -41.6738 -434.069 12.5022 -35.1298 -447.795 10.0223 -30.511 -455.794 6.7671 -26.4654 -460.791 2.4423 -24.2919 -464.578 0.2402 -8.2187 -14.5214 0.2948 -8.7411 -16.3672 0.5247 -10.0309 -17.8905 1.1419 -11.386 -19.3222 1.89 -12.7254 -20.8552 2.392 -14.0432 -22.4116 2.6217 -14.6972 -24.3185 2.0715 -15.5306 -26.234 2.0482 -16.1094 -27.8038 2.3068 -14.7796 -28.9827 3.1257 -13.6062 -30.5844 3.6202 -12.2537 -32.1091 3.9089 -11.1222 -33.7683 4.2796 -10.1932 -35.2295 5.196 -9.3619 -36.7283 6.3117 -8.5851 -38.2492 7.4144 -7.5935 -39.8435 8.2499 -6.8916 -41.4349 9.2193 -6.2727 -43.3267 9.6108 -5.7427 -44.6215 10.9758 -5.2774 -45.3085 12.8612 -4.5701 -46.2857 12.7646 -3.9187 -47.0128 11.0346 -3.487 -47.3534 9.0584 -3.1601 -48.3203 10.2056 -2.5906 -49.7167 11.29 -2.064 -51.2649 10.2609 -1.9023 -53.0628 10.2828 -1.2374 -53.7481 8.8883 -0.2338 -55.4757 8.438 0.9268 -57.1391 8.1846 2.1659 -58.7648 8.26 2.7966 -60.3652 9.2072 3.5606 -62.0815 8.7826 4.1051 -63.9769 8.2533 4.7728 -65.8913 8.0534 5.555 -67.7898 8.1794 5.4215 -69.7319 8.5591 5.3722 -71.1779 9.39 6.6015 -72.8224 9.4344 7.9091 -74.3345 9.4579 9.1469 -75.9691 9.4502 10.0298 -77.8076 9.4917 10.7723 -79.6982 9.5101 12.3735 -80.8411 9.4583 13.4145 -82.6176 9.4397 14.1594 -84.5026 9.6273 14.908 -86.352 10.0263 15.6285 -88.1574 10.421 16.2688 -90.0988 10.1972 16.8061 -92.0324 10.2983 18.0591 -93.5211 10.9131 19.0692 -95.1762 11.592 20.0514 -96.8019 12.3554 20.7986 -98.4251 13.1509 22.3425 -99.643 13.6764 23.1324 -101.452 13.8694 24.2278 -103.176 13.8286 25.7948 -104.465 13.8973 27.3532 -105.795 13.951 28.4996 -107.423 13.9547 30.0108 -108.56 13.6639 31.1081 -108.609 12.0588 29.9694 -109.91 10.9348 28.8308 -111.21 9.8109 27.6922 -112.511 8.6869 26.8377 -113.477 7.7017 28.1153 -111.967 8.2837 29.3929 -110.456 8.8658 30.6706 -108.946 9.4479 31.1787 -108.975 10.7509 31.0798 -109.308 12.7833 31.1974 -110.389 14.0207 31.8589 -112.244 14.4776 32.2207 -114.081 14.8897 32.3754 -116.09 14.7382 33.2282 -117.763 14.1097 34.0263 -119.608 13.7086 34.4263 -121.594 13.4703 34.6735 -123.595 13.4834 34.4631 -125.614 13.6554 35.477 -127.198 13.9548 36.4488 -128.373 14.9241 36.0423 -130.187 15.3722 35.1621 -131.552 15.4371 35.6418 -129.852 14.8263 35.0348 -128.062 14.2107 35.5446 -129.844 14.1534 35.6291 -131.858 14.0497 34.8485 -133.618 13.7199 34.2995 -135.309 12.7219 33.9891 -137.213 12.2496 34.6951 -139.136 12.158 34.4342 -141.072 12.4762 34.9496 -142.891 13.1328 35.1207 -144.674 12.8365 36.0553 -146.471 12.5635 36.5162 -147.923 11.2272 37.0821 -149.692 10.5935 38.1845 -151.367 10.8233 38.9786 -152.557 11.4668 38.5512 -154.493 11.7745 38.9845 -156.482 12.0272 38.8087 -158.469 12.102 39.4316 -160.399 12.1561 40.017 -162.149 11.7738 39.9044 -164.064 11.3068 40.4166 -165.909 10.6066 41.3853 -167.549 10.7632 42.1247 -169.127 11.6727 42.1485 -170.826 12.6221 41.2541 -172.153 13.7028 41.3329 -173.641 14.3131 41.6008 -174.868 12.6805 41.8738 -176.8 12.275 42.7438 -178.546 11.9564 43.2439 -180.458 12.0397 43.3656 -182.43 12.4106 43.6747 -184.215 13.2717 44.1736 -186.124 13.8383 44.3535 -187.907 14.7675 44.8726 -189.568 15.6922 45.4404 -191.1 14.5715 46.1386 -192.926 14.1459 46.6287 -194.889 13.783 47.9055 -196.435 13.3908 49.0241 -197.956 13.467 49.8322 -199.376 13.2319 51.04 -200.399 12.0409 -16.8109 -27.3553 2.8101 -17.497 -28.3029 4.2038 -18.1984 -29.271 5.5067 -18.2577 -29.3412 3.7473 -18.2679 -29.344 1.9276 -18.2781 -29.3467 0.108 -18.2883 -29.3494 -1.7116 -18.2985 -29.3522 -3.5313 -18.8534 -30.5664 -3.9808 -18.8107 -32.318 -3.8597 -19.3066 -34.0554 -3.7456 -18.9488 -34.5418 -2.2544 -18.3075 -35.7012 -1.0566 -18.003 -37.2922 -0.254 -17.2153 -38.7422 0.5062 -17.2992 -40.1694 1.5541 -17.1185 -41.7267 2.3954 -17.083 -42.8762 3.6698 -17.3639 -44.4413 4.545 -18.2212 -45.6938 5.2818 -18.9632 -46.7735 4.1464 -19.2427 -47.6114 2.5633 -19.7572 -49.1601 2.2576 -20.0441 -50.8741 2.5491 -20.3286 -52.4364 3.2684 -19.8077 -53.8024 3.6098 -19.2008 -54.6661 2.2731 -18.7221 -56.0354 2.9434 -18.7365 -56.729 4.1896 -18.8997 -58.1413 5.2798 -18.8149 -59.8936 5.7078 -18.9822 -61.072 7.0484 -19.3934 -62.5349 8.0119 -19.547 -63.8484 9.0694 -19.5772 -65.5723 8.63 -19.258 -67.3139 8.3405 -19.7508 -69.0603 8.364 -19.9946 -70.8175 8.7102 -19.8037 -72.5539 9.1873 -19.7201 -74.3251 9.5635 -20.2567 -75.9938 9.7611 -19.7758 -77.7066 9.8918 -19.8692 -79.394 10.0722 -20.6153 -80.6503 10.7965 -20.8101 -82.0334 11.1362 -21.8468 -83.2751 10.5156 -22.3598 -84.646 11.4203 -22.8139 -86.2646 12.0203 -22.9433 -87.4114 13.1988 -23.2601 -88.7922 14.1473 -23.5187 -90.5915 14.1567 -23.7693 -92.3875 14.2837 -23.9193 -94.161 14.5659 -24.765 -95.4177 14.2775 -25.6946 -96.5629 13.7452 -26.3361 -98.2508 13.7081 -26.22 -99.6251 14.4174 -26.029 -100.232 16.1217 -25.98 -100.937 17.7977 -26.1774 -101.196 19.58 -26.4133 -101.381 21.3748 -26.5757 -102.902 22.0388 -26.565 -104.106 22.8298 -10.4886 -18.1238 0.6694 -10.4015 -18.057 0.4643 -11.3637 -19.3353 1.4826 -12.4409 -20.4928 2.3203 -13.7335 -21.882 2.6066 -14.3525 -23.4451 1.6476 -14.7639 -24.7529 0.4153 -15.0123 -25.6795 -1.2982 -14.7483 -27.3027 -2.2341 -14.1682 -28.7546 -3.3613 -14.1335 -30.3237 -2.5621 -14.176 -32.0715 -1.7097 -14.076 -33.7889 -0.9359 -13.8862 -35.6563 -1.4771 -13.5408 -37.5381 -1.8551 -12.9254 -39.3671 -2.0095 -12.8947 -41.2639 -2.5483 -12.5093 -43.0891 -2.3969 -11.8636 -44.7358 -1.5183 -11.3409 -46.4019 -0.6056 -11.0233 -47.5467 0.9658 -10.5913 -48.4457 2.6789 -10.1405 -50.0833 3.3431 -10.2934 -51.7904 2.9275 -10.88 -52.8858 1.4404 -11.0363 -54.4811 1.7038 -11.1
[...]
      <PointData>
        <DataArray type="Float32" Name="ca_cyt" NumberOfComponents="1" format="ascii">
5e-08 5e-08 5e-08 5e-08 5e-08 5e-08 5e-08 5e-08 5e-08 5e-08 5e-08 5e-08 5e-08 5e-08 5e-08 5e-08 5e-08 5e-08 5e-08 5e-08 5e-08 5e-08 5e-08 5e-08 5e-08 5e-08 5e-08 5e-08 5e-08 5e-08 5e-08 5e-08 5e-08 5e-08 5e-08 5e-08 5e-08 5e-08 5e-08 5e-08 5e-08 5e-08 5e-08 5e-08 5e-08 5e-08 5e-08 5e-08 5e-08 5e-08 5e-08 5e-08 5e-08 5e-08 5e-08 5e-08 5e-08 5e-08 5e-08 5e-08 5e-08 5e-08 5e-08 5e-08 5e-08 5e-08 5e-08 5e-08 5e-08 5e-08 5e-08 5e-08 5e-08 5e-08 5e-08 5e-08 5e-08 5e-08 5e-08 5e-08 5e-08 5e-08 5e-08 5e-08 5e-08 5e-08 5e-08 5e-08 5e-08 5e-08 5e-08 5e-08 5e-08 5e-08 5e-08 5e-08 5e-08 5e-08 5e-08 5e-08 5e-08 5e-08 5e-08 5e-08 5e-08 5e-08 5e-08 5e-08 5e-08 5e-08 5e-08 5e-08 5e-08 5e-08 5e-08 5e-08 5e-08 5e-08 5e-08 5e-08 5e-08 5e-08 5e-08 5e-08 5e-08 5e-08 5e-08 5e-08 5e-08 5e-08 5e-08 5e-08 5e-08 5e-08 5e-08 5e-08 5e-08 5e-08 5e-08 5e-08 5e-08 5e-08 5e-08 5e-08 5e-08 5e-08 5e-08 5e-08 5e-08 5e-08 5e-08 5e-08 5e-08 5e-08 5e-08 5e-08 5e-08 5e-08 5e-08 5e-08 5e-08 5e-08 5e-08 5e-08 5e-08 5e-08 5e-08 5e-08 5e-08 5e-08 5e-08 5e-08 5e-08 5e-08 5e-08 5e-08 5e-08 5e-08 5e-08 5e-08 5e-08 5e-08 5e-08 5e-08 5e-08 5e-08 5e-08 5e-08 5e-08 5e-08 5e-08 5e-08 5e-08 5e-08 5e-08 5e-08 5e-08 5e-08 5e-08 5e-08 5e-08 5e-08 5e-08 5e-08 5e-08 5e-08 5e-08 5e-08 5e-08 5e-08 5e-08 5e-08 5e-08 5e-08 5e-08 5e-08 5e-08 5e-08 5e-08 5e-08 5e-08 5e-08 5e-08 5e-08 5e-08 5e-08 5e-08 5e-08 5e-08 5e-08 5e-08 5e-08 5e-08 5e-08 5e-08 5e-08 5e-08 5e-08 5e-08 5e-08 5e-08 5e-08 5e-08 5e-08 5e-08 5e-08 5e-08 5e-08 5e-08 5e-08 5e-08 5e-08 5e-08 5e-08 5e-08 5e-08 5e-08 5e-08 5e-08 5e-08 5e-08 5e-08 5e-08 5e-08 5e-08 5e-08 5e-08 5e-08 5e-08 5e-08 5e-08 5e-08 5e-08 5e-08 5e-08 5e-08 5e-08 5e-08 5e-08 5e-08 5e-08 5e-08 5e-08 5e-08 5e-08 5e-08 5e-08 5e-08 5e-08 5e-08 5e-08 5e-08 5e-08 5e-08 5e-08 5e-08 5e-08 5e-08 5e-08 5e-08 5e-08 5e-08 5e-08 5e-08 5e-08 5e-08 5e-08 5e-08 5e-08 5e-08 5e-08 5e-08 5e-08 5e-08 5e-08 5e-08 5e-08 5e-08 5e-08 5e-08 5e-08 5e-08 5e-08 5e-08 5e-08 5e-08 5e-08 5e-08 5e-08 5e-08 5e-08 5e-08 5e-08 5e-08 5e-08 5e-08 5e-08 5e-08 5e-08 5e-08 5e-08 5e-08 5e-08 5e-08 5e-08 5e-08 5e-08 5e-08 5e-08 5e-08 5e-08 5e-08 5e-08 5e-08 5e-08 5e-08 5e-08 5e-08 5e-08 5e-08 5e-08 5e-08 5e-08 5e-08 5e-08 5e-08 5e-08 5e-08 5e-08 5e-08 5e-08 5e-08 5e-08 5e-08 5e-08 5e-08 5e-08 5e-08 5e-08 5e-08 5e-08 5e-08 5e-08 5e-08 5e-08 5e-08 5e-08 5e-08 5e-08 5e-08 5e-08 5e-08 5e-08 5e-08 5e-08 5e-08 5e-08 5e-08 5e-08 5e-08 5e-08 5e-08 5e-08 5e-08 5e-08 5e-08 5e-08 5e-08 5e-08 5e-08 5e-08 5e-08 5e-08 5e-08 5e-08 5e-08 5e-08 5e-08 5e-08 5e-08 5e-08 5e-08 5e-08 5e-08 5e-08 5e-08 5e-08 5e-08 5e-08 5e-08 5e-08 5e-08 5e-08 5e-08 5e-08 5e-08 5e-08 5e-08 5e-08 5e-08 5e-08 5e-08 5e-08 5e-08 5e-08 5e-08 5e-08 5e-08 5e-08 5e-08 5e-08 5e-08 5e-08 5e-08 5e-08 5e-08 5e-08 5e-08 5e-08 5e-08 5e-08 5e-08 5e-08 5e-08 5e-08 5e-08 5e-08 5e-08 5e-08 5e-08 5e-08 5e-08 5e-08 5e-08 5e-08 5e-08 5e-08 5e-08 5e-08 5e-08 5e-08 5e-08 5e-08 5e-08 5e-08 5e-08 5e-08 5e-08 5e-08 5e-08 5e-08 5e-08 5e-08 5e-08 5e-08 5e-08 5e-08 5e-08 5e-08 5e-08 5e-08 5e-08 5e-08 5e-08 5e-08 5e-08 5e-08 5e-08 5e-08 5e-08 5e-08 5e-08 5e-08 5e-08 5e-08 5e-08 5e-08 5e-08 5e-08 5e-08 5e-08 5e-08 5e-08 5e-08 5e-08 5e-08 5e-08 5e-08 5e-08 5e-08 5e-08 5e-08 5e-08 5e-08 5e-08 5e-08 5e-08 5e-08 5e-08 5e-08 5e-08 5e-08 5e-08 5e-08 5e-08 5e-08 5e-08 5e-08 5e-08 5e-08 5e-08 5e-08 5e-08 5e-08 5e-08 5e-08 5e-08 5e-08 5e-08 5e-08 5e-08 5e-08 5e-08 5e-08 5e-08 5e-08 5e-08 5e-08 5e-08 5e-08 5e-08 5e-08 5e-08 5e-08 5e-08 5e-08 5e-08 5e-08 5e-08 5e-08 5e-08 5e-08 5e-08 5e-08 5e-08 5e-08 5e-08 5e-08 5e-08 5e-08 5e-08 5e-08 5e-08 5e-08 5e-08 5e-08 5e-08 5e-08 5e-08 5e-08 5e-08 5e-08 5e-08 5e-08 5e-08 5e-08 5e-08 5e-08 5e-08 5e-08 5e-08 5e-08 5e-08 5e-08 5e-08 5e-08 5e-08 5e-08 5e-08 5e-08 5e-08 5e-08 5e-08 5e-08 5e-08 5e-08 5e-08 5e-08 5e-08 5e-08 5e-08 5e-08 5e-08 5e-08 5e-08 5e-08 5e-08 5e-08 5e-08 5e-08 5e-08 5e-08 5e-08 5e-08 5e-08 5e-08 5e-08 5e-08 5e-08 5e-08 5e-08 5e-08 5e-08 5e-08 5e-08 5e-08 5e-08 5e-08 5e-08 5e-08 5e-08 5e-08 5e-08 5e-08 5e-08 5e-08 5e-08 5e-08 5e-08 5e-08 5e-08 5e-08 5e-08 5e-08 5e-08 5e-08 5e-08 5e-08 5e-08 5e-08 5e-08 5e-08 5e-08 5e-08 5e-08 5e-08 5e-08 5e-08 5e-08 5e-08 5e-08 5e-08 5e-08 5e-08 5e-08 5e-08 5e-08 5e-08 5e-08 5e-08 5e-08 5e-08 5e-08 5e-08 5e-08 5e-08 5e-08 5e-08 5e-08 5e-08 5e-08 5e-08 5e-08 5e-08 5e-08 5e-08 5e-08 5e-08 5e-08 5e-08 5e-08 5e-08 5e-08 5e-08 5e-08 5e-08 5e-08 5e-08 5e-08 5e-08 5e-08 5e-08 5e-08 5e-08 5e-08 5e-08 5e-08 5e-08 5e-08 5e-08 5e-08 5e-08 5e-08 5e-08 5e-08 5e-08 5e-08 5e-08 5e-08 5e-08 5e-08 5e-08 5e-08 5e-08 5e-08 5e-08 5e-08 5e-08 5e-08 5e-08 5e-08 5e-08 5e-08 5e-08 5e-08 5e-08 5e-08 5e-08 5e-08 5e-08 5e-08 5e-08 5e-08 5e-08 5e-08 5e-08 5e-08 5e-08 5e-08 5e-08 5e-08 5e-08 5e-08 5e-08 5e-08 5e-08 5e-08 5e-08 5e-08 5e-08 5e-08 5e-08 5e-08 5e-08 5e-08 5e-08 5e-08 5e-08 5e-08 5e-08 5e-08 5e-08 5e-08 5e-08 5e-08 5e-08 5e-08 5e-08 5e-08 5e-08 5e-08 5e-08 5e-08 5e-08 5e-08 5e-08 5e-08 5e-08 5e-08 5e-08 5e-08 5e-08 5e-08 5e-08 5e-08 5e-08 5e-08 5e-08 5e-08 5e-08 5e-08 5e-08 5e-08 5e-08 5e-08 5e-08 5e-08 5e-08 5e-08 5e-08 5e-08 5e-08 5e-08 5e-08 5e-08 5e-08 5e-08 5e-08 5e-08 5e-08 5e-08 5e-08 5e-08 5e-08 5e-08 5e-08 5e-08 5e-08 5e-08 5e-08 5e-08 5e-08 5e-08 5e-08 5e-08 5e-08 5e-08 5e-08 5e-08 5e-08 5e-08 5e-08 5e-08 5e-08 5e-08 5e-08 5e-08 5e-08 5e-08 5e-08 5e-08 5e-08 5e-08 5e-08 5e-08 5e-08 5e-08 5e-08 5e-08 5e-08 5e-08 5e-08 5e-08 5e-08 5e-08 5e-08 5e-08 5e-08 5e-08 5e-08 5e-08 5e-08 5e-08 5e-08 5e-08 5e-08 5e-08 5e-08 5e-08 5e-08 5e-08 5e-08 5e-08 5e-08 5e-08 5e-08 5e-08 5e-08 5e-08 5e-08 5e-08 5e-08 5e-08 5e-08 5e-08 5e-08 5e-08 5e-08 5e-08 5e-08 5e-08 5e-08 5e-08 5e-08 5e-08 5e-08 5e-08 5e-08 5e-08 5e-08 5e-08 5e-08 5e-08 5e-08 5e-08 5e-08 5e-08 5e-08 5e-08 5e-08 5e-08 5e-08 5e-08 5e-08 5e-08 5e-08 5e-08 5e-08 5e-08 5e-08 5e-08 5e-08 5e-08 5e-08 5e-08 5e-08 5e-08 5e-08 5e-08 5e-08 5e-08 5e-08 5e-08 5e-08 5e-08 5e-08 5e-08 5e-08 5e-08 5e-08 5e-08 5e-08 5e-08 5e-08 5e-08 5e-08 5e-08 5e-08 5e-08 5e-08 5e-08 5e-08 5e-08 5e-08 5e-08 5e-08 5e-08 5e-08 5e-08 5e-08 5e-08 5e-08 5e-08 5e-08 5e-08 5e-08 5e-08 5e-08 5e-08 5e-08 5e-08 5e-08 5e-08 5e-08 5e-08 5e-08 5e-08 5e-08 5e-08 5e-08 5e-08 5e-08 5e-08 5e-08 5e-08 5e-08 5e-08 5e-08 5e-08 5e-08 5e-08 5e-08 5e-08 5e-08 5e-08 5e-08 5e-08 5e-08 5e-08 5e-08 5e-08 5e-08 5e-08 5e-08 5e-08 5e-08 5e-08 5e-08 5e-08 5e-08 5e-08 5e-08 5e-08 5e-08 5e-08 5e-08 5e-08 5e-08 5e-08 5e-08 5e-08 5e-08 5e-08 5e-08 5e-08 5e-08 5e-08 5e-08 5e-08 5e-08 5e-08 5e-08 5e-08 5e-08 5e-08 5e-08 5e-08 5e-08 5e-08 5e-08 5e-08 5e-08 5e-08 5e-08 5e-08 5e-08 5e-08 5e-08 5e-08 5e-08 5e-08 5e-08 5e-08 5e-08 5e-08 5e-08 5e-08 5e-08 5e-08 5e-08 5e-08 5e-08 5e-08 5e-08 5e-08 5e-08 5e-08 5e-08 5e-08 5e-08 5e-08 5e-08 5e-08 5e-08 5e-08 5e-08 5e-08 5e-08 5e-08 5e-08 5e-08 5e-08 5e-08 5e-08 5e-08 5e-08 5e-08 5e-08 5e-08 5e-08 5e-08 5e-08 5e-08 5e-08 5e-08 5e-08 5e-08 5e-08 5e-08 5e-08 5e-08 5e-08 5e-08 5e-08 5e-08 5e-08 5e-08 5e-08 5e-08 5e-08 5e-08 5e-08 5e-08 5e-08 5e-08 5e-08 5e-08 5e-08 5e-08 5e-08 5e-08 5e-08 5e-08 5e-08 5e-08 5e-08 5e-08 5e-08 5e-08 5e-08 5e-08 5e-08 5e-08 5e-08 5e-08 5e-08 5e-08 5e-08 5e-08 5e-08 5e-08 5e-08 5e-08 5e-08 5e-08 5e-08 5e-08 5e-08 5e-08 5e-08 5e-08 5e-08 5e-08 5e-08 5e-08 5e-08 5e-08 5e-08 5e-08 5e-08 5e-08 5e-08 5e-08 5e-08 5e-08 5e-08 5e-08 5e-08 5e-08 5e-08 5e-08 5e-08 5e-08 5e-08 5e-08 5e-08 5e-08 5e-08 5e-08 5e-08 5e-08 5e-08 5e-08 5e-08 5e-08 5e-08 5e-08 5e-08 5e-08 5e-08 5e-08 5e-08 5e-08 5e-08 5e-08 5e-08 5e-08 5e-08 5e-08 5e-08 5e-08 5e-08 5e-08 5e-08 5e-08 5e-08 5e-08 5e-08 5e-08 5e-08 5e-08 5e-08 5e-08 5e-08 5e-08 5e-08 5e-08 5e-08 5e-08 5e-08 5e-08 5e-08 5e-08 5e-08 5e-08 5e-08 5e-08 5e-08 5e-08 5e-08 5e-08 5e-08 5e-08 5e-08 5e-08 5e-08 5e-08 5e-08 5e-08 5e-08 5e-08 5e-08 5e-08 5e-08 5e-08 5e-08 5e-08 5e-08 5e-08 5e-08 5e-08 5e-08 5e-08 5e-08 5e-08 5e-08 5e-08 5e-08 5e-08 5e-08 5e-08 5e-08 5e-08 5e-08 5e-08 5e-08 5e-08 5e-08 5e-08 5e-08 5e-08 5e-08 5e-08 5e-08 5e-08 5e-08 5e-08 5e-08 5e-08 5e-08 5e-08 5e-08 5e-08 5e-08 5e-08 5e-08 5e-08 5e-08 5e-08 5e-08 5e-08 5e-08 5e-08 5e-08 5e-08 5e-08 5e-08 5e-08 5e-08 5e-08 5e-08 5e-08 5e-08 5e-08 5e-08 5e-08 5e-08 5e-08 5e-08 5e-08 5e-08 5e-08 5e-08 5e-08 5e-08 5e-08 5e-08 5e-08 5e-08 5e-08 5e-08 5e-08 5e-08 5e-08 5e-08 5e-08 5e-08 5e-08 5e-08 5e-08 5e-08 5e-08 5e-08 5e-08 5e-08 5e-08 5e-08 5e-08 5e-08 5e-08 5e-08 5e-08 5e-08 5e-08 5e-08 5e-08 5e-08 5e-08 5e-08 5e-08 5e-08 5e-08 5e-08 5e-08 5e-08 5e-08 5e-08 5e-08 5e-08 5e-08 5e-08 5e-08 5e-08 5e-08 5e-08 5e-08 5e-08 5e-08 5e-08 5e-08 5e-08 5e-08 5e-08 5e-08 5e-08 5e-08 5e-08 5e-08 5e-08 5e-08 5e-08 5e-08 5e-08 5e-08 5e-08 5e-08 5e-08 5e-08 5e-08 5e-08 5e-08 5e-08 5e-08 5e-08 5e-08 5e-08 5e-08 5e-08 5e-08 5e-08 5e-08 5e-08 5e-08 5e-08 5e-08 5e-08 5e-08 5e-08 5e-08 5e-08 5e-08 5e-08 5e-08 5e-08 5e-08 5e-08 5e-08 5e-08 5e-08 5e-08 5e-08 5e-08 5e-08 5e-08 5e-08 5e-08 5e-08 5e-08 5e-08 5e-08 5e-08 5e-08 5e-08 5e-08 5e-08 5e-08 5e-08 5e-08 5e-08 5e-08 5e-08 5e-08 5e-08 5e-08 5e-08 5e-08 5e-08 5e-08 5e-08 5e-08 5e-08 5e-08 5e-08 5e-08 5e-08 5e-08 5e-08 5e-08 5e-08 5e-08 5e-08 5e-08 5e-08 5e-08 5e-08 5e-08 5e-08 5e-08 5e-08 5e-08 5e-08 5e-08 5e-08 5e-08 5e-08 5e-08 5e-08 5e-08 5e-08 5e-08 5e-08 5e-08 5e-08 5e-08 5e-08 5e-08 5e-08 5e-08 5e-08 5e-08 5e-08 5e-08 5e-08 5e-08 5e-08 5e-08 5e-08 5e-08 5e-08 5e-08 5e-08 5e-08 5e-08 5e-08 5e-08 5e-08 5e-08 5e-08 5e-08 5e-08 5e-08 5e-08 5e-08 5e-08 5e-08 5e-08 5e-08 5e-08 5e-08 5e-08 5e-08 5e-08 5e-08 5e-08 5e-08 5e-08 5e-08 5e-08 5e-08 5e-08 5e-08 5e-08 5e-08 5e-08 5e-08 5e-08 5e-08 5e-08 5e-08 5e-08 5e-08 5e-08 5e-08 5e-08 5e-08 5e-08 5e-08 5e-08 5e-08 5e-08 5e-08 5e-08 5e-08 5e-08 5e-08 5e-08 5e-08 5e-08 5e-08 5e-08 5e-08 5e-08 5e-08 5e-08 5e-08 5e-08 5e-08 5e-08 5e-08 5e-08 5e-08 5e-08 5e-08 5e-08 5e-08 5e-08 5e-08 5e-08 5e-08 5e-08 5e-08 5e-08 5e-08 5e-08 5e-08 5e-08 5e-08 5e-08 5e-08 5e-08 5e-08 5e-08 5e-08 5e-08 5e-08 5e-08 5e-08 5e-08 5e-08 5e-08 5e-08 5e-08 5e-08 5e-08 5e-08 5e-08 5e-08 5e-08 5e-08 5e-08 5e-08 5e-08 5e-08 5e-08 5e-08 5e-08 5e-08 5e-08 5e-08 5e-08 5e-08 5e-08 5e-08 5e-08 5e-08 5e-08 5e-08 5e-08 5e-08 5e-08 5e-08 5e-08 5e-08 5e-08 5e-08 5e-08 5e-08 5e-08 5e-08 5e-08 5e-08 5e-08 5e-08 5e-08 5e-08 5e-08 5e-08 5e-08 5e-08 5e-08 5e-08 5e-08 5e-08 5e-08 5e-08 5e-08 5e-08 5e-08 5e-08 5e-08 5e-08 5e-08 5e-08 5e-08 5e-08 5e-08 5e-08 5e-08 5e-08 5e-08 5e-08 5e-08 5e-08 5e-08 5e-08 5e-08 5e-08 5e-08 5e-08 5e-08 5e-08 5e-08 5e-08 5e-08 5e-08 5e-08 5e-08 5e-08 5e-08 5e-08 5e-08 5e-08 5e-08 5e-08 5e-08 5e-08 5e-08 5e-08 5e-08 5e-08 5e-08 5e-08 5e-08 5e-08 5e-08 5e-08 5e-08 5e-08 5e-08 5e-08 5e-08 5e-08 5e-08 5e-08 5e-08 5e-08 5e-08 5e-08 5e-08 5e-08 5e-08 5e-08 5e-08 5e-08 5e-08 5e-08 5e-08 5e-08 5e-08 5e-08 5e-08 5e-08 5e-08 5e-08 5e-08 5e-08 5e-08 5e-08 5e-08 5e-08 5e-08 5e-08 5e-08 5e-08 5e-08 5e-08 5e-08 5e-08 5e-08 5e-08 5e-08 5e-08 5e-08 5e-08 5e-08 5e-08 5e-08 5e-08 5e-08 5e-08 5e-08 5e-08 5e-08 5e-08 5e-08 5e-08 5e-08 5e-08 5e-08 5e-08 5e-08 5e-08 5e-08 5e-08 5e-08 5e-08 5e-08 5e-08 5e-08 5e-08 5e-08 5e-08 5e-08 5e-08 5e-08 5e-08 5e-08 5e-08 5e-08 5e-08 5e-08 5e-08 5e-08 5e-08 5e-08 5e-08 5e-08 5e-08 5e-08 5e-08 5e-08 5e-08 5e-08 5e-08 5e-08 5e-08 5e-08 5e-08 5e-08 5e-08 5e-08 5e-08 5e-08 5e-08 5e-08 5e-08 5e-08 5e-08 5e-08 5e-08 5e-08 5e-08 5e-08 5e-08 5e-08 5e-08 5e-08 5e-08 5e-08 5e-08 5e-08 5e-08 5e-08 5e-08 5e-08 5e-08 5e-08 5e-08 5e-08 5e-08 5e-08 5e-08 5e-08 5e-08 5e-08 5e-08 5e-08 5e-08 5e-08 5e-08 5e-08 5e-08 5e-08 5e-08 5e-08 5e-08 5e-08 5e-08 5e-08 5e-08 5e-08 5e-08 5e-08 5e-08 5e-08 5e-08 5e-08 5e-08 5e-08 5e-08 5e-08 5e-08 5e-08 5e-08 5e-08 5e-08 5e-08 5e-08 5e-08 5e-08 5e-08 5e-08 5e-08 5e-08 5e-08 5e-08 5e-08 5e-08 5e-08 5e-08 5e-08 5e-08 5e-08 5e-08 5e-08 5e-08 5e-08 5e-08 5e-08 5e-08 5e-08 5e-08 5e-08 5e-08 5e-08 5e-08 5e-08 5e-08 5e-08 5e-08 5e-08 5e-08 5e-08 5e-08 5e-08 5e-08 5e-08 5e-08 5e-08 5e-08 5e-08 5e-08 5e-08 5e-08 5e-08 5e-08 5e-08 5e-08 5e-08 5e-08 5e-08 5e-08 5e-08 5e-08 5e-08 5e-08 5e-08 5e-08 5e-08 5e-08 5e-08 5e-08 5e-08 5e-08 5e-08 5e-08 5e-08 5e-08 5e-08 5e-08 5e-08 5e-08 5e-08 5e-08 5e-08 5e-08 5e-08 5e-08 5e-08 5e-08 5e-08 5e-08 5e-08 5e-08 5e-08 5e-08 5e-08 5e-08 5e-08 5e-08 5e-08 5e-08 5e-08 5e-08 5e-08 5e-08 5e-08 5e-08 5e-08 5e-08 5e-08 5e-08 5e-08 5e-08 5e-08 5e-08 5e-08 5e-08 5e-08 5e-08 5e-08 5e-08 5e-08 5e-08 5e-08 5e-08 5e-08 5e-08 5e-08 5e-08 5e-08 5e-08 5e-08 5e-08 5e-08 5e-08 5e-08 5e-08 5e-08 5e-08 5e-08 5e-08 5e-08 5e-08 5e-08 5e-08 5e-08 5e-08 5e-08 5e-08 5e-08 5e-08 5e-08 5e-08 5e-08 5e-08 5e-08 5e-08 5e-08 5e-08 5e-08 5e-08 5e-08 5e-08 5e-08 5e-08 5e-08 5e-08 5e-08 5e-08 5e-08 5e-08 5e-08 5e-08 5e-08 5e-08 5e-08 5e-08 5e-08 5e-08 5e-08 5e-08 5e-08 5e-08 5e-08 5e-08 5e-08 5e-08 5e-08 5e-08 5e-08 5e-08 5e-08 5e-08 5e-08 5e-08 5e-08 5e-08 5e-08 5e-08 5e-08 5e-08 5e-08 5e-08 5e-08 5e-08 5e-08 5e-08 5e-08 5e-08 5e-08 5e-08 5e-08 5e-08 5e-08 5e-08 5e-08 5e-08 5e-08 5e-08 5e-08 5e-08 5e-08 5e-08 5e-08 5e-08 5e-08 5e-08 5e-08 5e-08 5e-08 5e-08 5e-08 5e-08 5e-08 5e-08 5e-08 5e-08 5e-08 5e-08 5e-08 5e-08 5e-08 5e-08 5e-08 5e-08 5e-08 5e-08 5e-08 5e-08 5e-08 5e-08 5e-08 5e-08 5e-08 5e-08 5e-08 5e-08 5e-08 5e-08 5e-08 5e-08 5e-08 5e-08 5e-08 5e-08 5e-08 5e-08 5e-08 5e-08 5e-08 5e-08 5e-08 5e-08 5e-08 5e-08 5e-08 5e-08 5e-08 5e-08 5e-08 5e-08 5e-08 5e-08 5e-08 5e-08 5e-08 5e-08 5e-08 5e-08 5e-08 5e-08 5e-08 5e-08 5e-08 5e-08 5e-08 5e-08 5e-08 5e-08 5e-08 5e-08 5e-08 5e-08 5e-08 5e-08 5e-08 5e-08 5e-08 5e-08 5e-08 5e-08 5e-08 5e-08 5e-08 5e-08 5e-08 5e-08 5e-08 5e-08 5e-08 5e-08 5e-08 5e-08 5e-08 5e-08 5e-08 5e-08 5e-08 5e-08 5e-08 5e-08 5e-08 5e-08 5e-08 5e-08 5e-08 5e-08 5e-08 5e-08 5e-08 5e-08 5e-08 5e-08 5e-08 5e-08 5e-08 5e-08 5e-08 5e-08 5e-08 5e-08 5e-08 5e-08 5e-08 5e-08 5e-08 5e-08 5e-08 5e-08 5e-08 5e-08 5e-08 5e-08 5e-08 5e-08 5e-08 5e-08 5e-08 5e-08 5e-08 5e-08 5e-08 5e-08 5e-08 5e-08 5e-08 5e-08 5e-08 5e-08 5e-08 5e-08 5e-08 5e-08 5e-08 5e-08 5e-08 5e-08 5e-08 5e-08 5e-08 5e-08 5e-08 5e-08 5e-08 5e-08 5e-08 5e-08 5e-08 5e-08 5e-08 5e-08 5e-08 5e-08 5e-08 5e-08 5e-08 5e-08 5e-08 5e-08 5e-08 5e-08 5e-08 5e-08 5e-08 5e-08 5e-08 5e-08 5e-08 5e-08 5e-08 5e-08 5e-08 5e-08 5e-08 5e-08 5e-08 5e-08 5e-08 5e-08 5e-08 5e-08 5e-08 5e-08 5e-08 5e-08 5e-08 5e-08 5e-08 5e-08 5e-08 5e-08 5e-08 5e-08 5e-08 5e-08 5e-08 5e-08 5e-08 5e-08 5e-08 5e-08 5e-08 5e-08 5e-08 5e-08 5e-08 5e-08 5e-08 5e-08 5e-08 5e-08 5e-08 5e-08 5e-08 5e-08 5e-08 5e-08 5e-08 5e-08 5e-08 5e-08 5e-08 5e-08 5e-08 5e-08 5e-08 5e-08 5e-08 5e-08 5e-08 5e-08 5e-08 5e-08 5e-08 5e-08 5e-08 5e-08 5e-08 5e-08 5e-08 5e-08 5e-08 5e-08 5e-08 5e-08 5e-08 5e-08 5e-08 5e-08 5e-08 5e-08 5e-08 5e-08 5e-08 5e-08 5e-08 5e-08 5e-08 
        </DataArray>
        <DataArray type="Float32" Name="ca_er" NumberOfComponents="1" format="ascii">