<?xml version="1.0"?>
<VTKFile type="UnstructuredGrid" version="0.1" byte_order="LittleEndian">
  <Time timestep="0.005"/>
  <UnstructuredGrid>
    <Piece NumberOfPoints="1345" NumberOfCells="1344">
      <Points>
        <DataArray type="Float32" NumberOfComponents="3" format="ascii">
-0.8015 -1.2678 0 -2.4565 -0.91 0.0523 -2.8293 2.667 0.2464 -3.0866 6.216 0.7208 -2.2413 9.6979 1.5153 -0.7404 12.7593 0.9662 0.227 15.8879 -1.0884 0.5524 20.1154 -1.9386 0.4575 24.418 -2.5408 0.4389 27.3767 -5.5178 -0.013 29.9656 -8.7108 -0.1419 14.3216 0.264 0.8616 14.8245 1.2959 2.5303 15.409 3.4469 5.0961 15.9466 3.8822 7.8356 16.5695 3.9069 10.5566 17.2922 4.0994 13.2701 17.9524 4.5537 15.8121 18.8134 4.7988 17.2134 19.7132 4.344 17.5574 19.3689 4.0634 -0.9274 14.3109 0.2417 -2.5488 14.1754 0.0246 -4.1702 14.04 -0.1925 -5.6969 13.9854 -0.1496 -6.0083 14.0245 0.9686 -4.7591 13.8534 0.1003 -4.5248 13.8442 -1.5168 -4.3735 13.8457 -3.1513 -4.2222 13.8471 -4.7858 -4.0708 13.8486 -6.4202 -3.7648 13.9278 -8.018 -3.1571 14.1597 -9.5252 -2.5409 14.9686 -10.6984 -0.6612 32.5013 -8.9792 -1.3441 34.6869 -8.6538 -2.5162 37.7967 -7.959 -4.0883 40.798 -9.2426 -6.1771 43.4321 -10.5669 -7.4526 45.9637 -12.4793 -8.199 48.9959 -14.3148 -8.488 52.2581 -16.0262 -8.9751 55.6713 -17.3793 -8.9724 59.3456 -17.9864 -8.8355 62.9598 -18.9326 -8.1651 65.7964 -21.101 -8.071 69.4931 -21.2598 -8.0725 72.7987 -19.5494 -8.8931 75.9303 -20.6534 -9.8467 77.8663 -22.8286 -10.916 79.9845 -24.8489 -11.8107 82.572 -26.461 -13.9622 85.1541 -28.0376 -15.428 87.4195 -30.0798 -16.2874 89.1284 -32.8169 -17.1302 91.8068 -33.4334 -16.6579 94.7355 -33.3269 -16.2793 97.4317 -32.2507 -16.0966 100.378 -31.8618 -15.6048 103.215 -31.8672 -15.0646 104.698 -30.0846 -14.4099 106.631 -31.3901 -13.9013 109.397 -31.7321 -13.1382 112.102 -31.8855 -12.0288 114.691 -32.2205 -9.9615 116.491 -32.7147 -8.3964 118.555 -33.6954 -7.0441 120.371 -35.2413 -16.3107 103.122 -31.2609 -17.0106 105.611 -30.0258 -17.7104 108.099 -28.7907 -18.4103 110.588 -27.5556 -19.1321 113.085 -26.3544 -20.0839 115.628 -25.7828 -21.6544 117.827 -26.4818 -22.4041 120.054 -28.0006 -23.8204 121.996 -29.2918 -16.2837 88.4956 -30.6847 -16.9057 88.45 -28.8674 -17.5277 88.4044 -27.0501 -18.1496 88.3588 -25.2328 -18.7716 88.3131 -23.4155 -19.3936 88.2675 -21.5982 -20.0155 88.2219 -19.7808 -20.6375 88.1763 -17.9635 -21.2595 88.1307 -16.1462 -21.8814 88.0851 -14.3289 -22.5034 88.0394 -12.5116 -23.1253 87.9938 -10.6943 -23.7473 87.9482 -8.8769 -24.3693 87.9026 -7.0596 -24.9912 87.857 -5.2423 -25.6132 87.8114 -3.425 -26.2352 87.7657 -1.6077 -26.8571 87.7201 0.2096 -27.4791 87.6745 2.0269 -28.1011 87.6289 3.8443 -28.723 87.5833 5.6616 -10.6474 82.0467 -25.97 -9.8973 83.5702 -26.7997 -8.9166 84.4636 -28.1497 -7.9416 85.635 -29.2349 -6.7633 86.7616 -30.2244 -5.9934 87.8877 -31.5 -4.805 89.0805 -31.9871 -4.0074 90.0975 -33.2964 -3.642 91.5318 -34.1524 -3.5504 92.2381 -35.0395 -2.6112 93.3175 -34.37 -1.4138 94.7914 -34.5426 -0.1697 96.0984 -35.117 0.8889 97.112 -35.3375 1.8787 97.6218 -33.8386 3.297 98.6527 -34.2066 4.478 100.153 -34.2331 5.7259 101.601 -34.2783 6.9236 103.076 -34.3329 8.2378 104.459 -34.2789 9.708 105.632 -34.1824 11.0242 106.915 -34.1788 12.03 108.529 -34.2938 12.8387 110.237 -34.4028 13.6986 111.917 -34.2947 14.9808 113.303 -34.0183 16.3534 114.538 -33.5266 -8.0122 74.6652 -19.0128 -7.3733 74.7434 -17.1393 -6.2129 74.8717 -15.5661 -4.6588 75.1485 -14.4836 -2.9313 75.2005 -13.5318 -1.1908 75.5548 -14.025 0.2492 75.4182 -15.2751 1.6994 75.2949 -16.4498 3.456 75.8724 -16.5978 4.909 77.061 -16.0201 6.3489 78.0205 -15.2054 7.6777 78.1558 -16.557 9.1932 78.8939 -17.1669 10.3243 80.3116 -17.9293 11.8031 81.2429 -18.8099 13.3202 82.0201 -19.7154 14.672 82.8734 -20.8357 15.8195 84.0369 -21.4716 17.3968 85.0052 -21.5241 19.1523 85.9091 -21.6233 20.835 86.8367 -21.5731 22.3782 87.6805 -22.4819 23.6336 88.6822 -23.6145 25.3121 89.236 -24.4178 26.9271 90.1776 -25.069 28.5711 91.1435 -25.6063 30.1849 92.1759 -26.0934 31.906 93.0582 -26.3886 33.349 94.3802 -26.2354 34.682 95.7638 -25.7885 36.0698 96.9946 -25.1164 -9.1332 71.1226 -19.9391 -11.2049 71.3971 -19.3463 -12.2503 72.1505 -17.4371 -13.2771 72.9723 -16.3017 -15.0629 74.4381 -16.0237 -17.1889 75.3374 -15.9102 -18.7708 76.7954 -16.5998 -20.2396 77.7578 -18.0502 -21.4318 79.2493 -19.3169 -22.4493 80.8848 -20.0685 -23.644 82.5321 -19.9209 -25.2693 83.8199 -19.7197 -26.4282 85.5474 -19.5741 -27.4271 87.2915 -19.7394 -28.2555 88.0894 -18.5764 -28.4362 88.7812 -16.6121 -28.7184 89.4709 -14.6555 -28.5952 90.5234 -12.9306 -28.0087 92.2281 -11.8717 -28.1824 93.3344 -10.523 -28.881 94.9101 -9.3484 -29.1637 96.6406 -8.2343 -29.7507 98.589 -7.8416 -31.2546 100.014 -7.7767 -32.9856 101.183 -7.8435 -34.438 102.686 -7.93 -35.8645 104.196 -8.077 -37.7492 105.064 -8.2888 -39.7252 105.511 -8.4883 -41.4274 106.554 -8.4275 -22.5697 79.9845 -21.0657 -23.5049 79.5868 -23.0086 -24.7357 79.2357 -23.1851 -26.0186 79.7983 -22.2548 -27.6912 80.6895 -21.9109 -29.3246 81.7314 -21.4655 -31.1306 82.4861 -21.4143 -32.9071 83.2024 -21.5235 -34.8537 83.2248 -21.3716 -36.6622 83.819 -20.8419 -38.0322 83.5029 -19.5874 -39.4902 83.5562 -18.2934 -40.9141 84.0358 -17.0459 -42.4783 85.0996 -16.5078 -44.0118 86.2891 -16.2793 -45.0805 86.8165 -17.3328 -45.3985 87.0849 -19.2874 -46.0085 87.5938 -21.1008 -46.5256 87.8633 -23.0125 -47.0124 88.1443 -24.9307 -48.0466 88.8001 -25.8124 -49.3531 89.8139 -24.8517 -23.4169 79.5945 -22.041 -7.4755 47.1812 -14.128 -6.6397 46.9581 -15.442 -6.0885 47.0624 -16.854 -5.6785 47.4504 -18.3124 -5.0375 48.1975 -19.4234 -4.9376 48.8586 -20.8471 -4.8994 49.5688 -22.2208 -4.8067 50.8524 -23.1201 -4.348 52.1399 -23.896 -3.8636 53.4258 -24.6617 -3.2759 54.7308 -25.2965 -2.6137 56.0992 -25.6637 -1.9972 57.5231 -25.7699 -0.7472 58.4335 -25.8246 0.1834 59.5702 -25.9895 1.0556 60.8294 -26.3063 1.4265 62.1744 -26.9168 1.2466 63.3678 -27.9187 0.8615 64.5278 -28.8693 -1.2039 34.2315 -8.7378 -2.1645 36.692 -8.3921 -3.11 39.1845 -8.3928 -3.9026 40.3411 -6.7187 -4.4638 40.8393 -4.1593 -5.2514 41.2336 -1.6507 -6.4986 41.3875 0.6577 -6.9016 41.3668 3.1344 -8.3244 41.1475 5.0228 -9.0777 42.2825 6.6587 -10.4818 44.1286 6.7312 -12.0542 45.877 6.472 -13.7926 47.4551 6.7415 -14.3287 48.7274 8.6097 -14.2892 50.0448 10.5825 -14.3831 52.2013 11.5125 -15.4653 54.1641 11.5993 -15.9872 56.1264 10.7348 -15.9935 58.493 10.4465 -16.6674 59.2873 8.5547 -17.4698 59.7595 6.3608 -17.8092 61.9411 6.2291 -19.8136 62.8997 6.5069 -21.3274 63.1601 7.9551 -22.8218 64.0013 9.1439 -24.7396 64.6596 9.7419 -25.9313 65.6939 8.2209 -27.3521 67.091 7.1443 -27.8515 68.7801 5.7356 -28.9706 70.1238 4.2552 -29.8302 71.1977 2.3661 -30.5772 72.9481 2.3143 -31.2511 73.9836 4.3225 -31.8836 74.7971 6.3519 -33.4979 76.3178 6.0157 -35.3494 77.7054 5.6794 -36.2359 77.7987 3.4859 -36.823 78.2142 1.2302 -37.2962 78.8752 -1.0041 -38.0777 79.5243 -3.1351 -38.5828 79.8578 -5.4262 -40.1286 80.7679 -6.86 -41.8887 81.3717 -5.9333 -43.201 81.2826 -4.0378 -44.3102 81.7185 -2.0187 -23.2557 64.0561 8.131 -24.9649 64.9635 8.1844 -26.0616 65.9005 8.9001 -26.305 66.1448 10.8713 -26.4364 66.2766 12.8582 -26.7662 66.3845 14.8041 -28.2543 66.3369 15.7942 -29.7596 66.2207 16.7645 -29.8152 66.2528 18.7633 -30.2709 66.9957 19.6957 -31.7156 67.9135 20.4594 -32.1409 69.5247 21.5115 -33.0427 71.1208 22.2483 -33.7682 72.7602 23.0868 -34.714 74.4169 23.6586 -35.5114 76.0162 24.4887 -35.8784 77.7991 25.2812 -36.6919 79.4931 25.9091 -37.5921 81.2366 26.1638 -37.9648 82.9348 26.6532 -38.1232 84.1537 28.0096 -37.4894 85.6297 29.04 -37.0034 87.4849 29.1485 -36.7841 89.4485 29.2879 -36.3959 91.4052 29.448 -9.6387 41.5186 6.3846 -11.2133 41.8239 6.3128 -12.0979 42.4791 4.8865 -13.2557 43.35 3.9751 -14.2423 43.577 2.4577 -15.3556 43.71 1.0276 -15.9894 44.5732 -0.4476 -16.6871 45.12 -2.0478 -17.7188 45.8368 -3.2857 -18.5783 46.8498 -4.5254 -19.9074 47.2662 -5.6939 -21.5852 47.5437 -6.3542 -22.9761 48.6597 -6.3259 -24.3563 49.8697 -6.2079 -25.8552 50.8966 -6.0169 -27.0962 51.9486 -5.4199 -27.9482 52.3876 -3.9646 -29.654 52.5789 -3.9322 -30.6445 52.9077 -5.3714 -32.0441 53.5066 -6.2656 -33.4656 54.634 -6.5349 -34.9544 55.5474 -7.0531 -36.2819 56.6634 -7.6004 -37.6486 57.8611 -7.7756 -38.5034 59.4777 -7.6459 -39.3718 61.0534 -7.2838 -40.2991 62.551 -6.7638 -41.2384 64.045 -6.261 -41.8614 65.6914 -5.7694 -42.4591 67.2851 -5.1652 -43.3383 68.5969 -4.4191 -44.4522 70.0317 -4.1392 -45.5063 71.5345 -4.0501 -46.5569 73.035 -4.1531 -47.8716 74.2263 -4.5515 -48.8625 75.1738 -5.5759 -49.2408 75.7623 -7.2733 -49.4584 77.0985 -8.4631 -49.9501 78.752 -8.946 -51.026 79.8745 -9.2484 -51.28 79.9424 -10.8927 17.7044 20.951 4.9703 18.2015 22.2043 5.6044 18.6985 23.4577 6.2386 19.0912 25.152 6.8819 19.429 27.2733 6.757 20.0937 28.9393 5.4586 20.5192 30.5261 4.0181 21.7848 31.8769 2.8501 22.0977 33.1829 1.0434 23.2662 34.71 0.0406 23.7528 35.2305 -1.9989 24.4415 36.3316 -0.4475 25.2156 37.3871 1.3732 25.5431 38.1412 3.4507 26.3109 39.4951 5.0553 27.3125 40.7429 3.9319 27.6125 41.5008 5.9749 27.8649 42.4672 7.8245 28.5761 44.0126 9.106 29.3017 45.8785 9.8466 29.8444 47.4239 10.9837 29.8427 48.4745 12.9418 30.4043 50.5089 13.6559 32.2661 51.6774 14.0416 33.7432 53.3643 13.9508 35.3704 54.8773 13.6311 36.404 56.7929 13.1328 37.9566 57.9008 12.228 39.1636 59.6692 11.6914 40.7811 61.2139 11.412 42.5407 62.5144 11.7504 43.9242 63.8221 12.81 45.3908 65.165 13.6376 45.9271 67.2097 14.1714 46.6355 69.1359 14.3788 48.3635 70.1089 14.8857 49.6569 71.9103 15.1633 50.9513 73.7475 15.4455 52.8054 74.9337 15.6383 54.7263 75.5702 15.6827 56.0864 76.9982 15.657 57.1449 78.0802 14.4904 58.894 79.349 14.0314 60.9129 80.2627 14.3307 62.6887 81.5896 14.007 64.1912 82.1373 14.8133 65.3934 82.3955 16.5144 66.9021 83.2776 17.6975 67.4164 84.9808 18.6495 68.0681 86.9646 19.2519 18.9087 24.0362 7.1126 19.1476 18.9083 3.9431 20.9905 18.3979 3.8423 22.9152 18.2333 3.6481 24.7758 17.8958 3.3306 26.5871 18.0132 3.1308 28.3023 18.6484 3.6845 29.9424 18.8206 4.6508 31.2866 18.6601 5.9911 32.7096 18.1098 7.1234 34.1103 16.839
[...]
      <PointData>
        <DataArray type="Float32" Name="calcium" NumberOfComponents="1" format="ascii">
4.99997e-08 4.99997e-08 4.99997e-08 4.99997e-08 4.99997e-08 4.99997e-08 4.99997e-08 4.99997e-08 4.99997e-08 4.99997e-08 4.99997e-08 4.99999e-08 4.99999e-08 4.99999e-08 4.99999e-08 4.99999e-08 4.99999e-08 4.99999e-08 4.99999e-08 4.99999e-08 4.99999e-08 5e-08 5e-08 5e-08 5e-08 5e-08 5e-08 5e-08 5e-08 5e-08 5e-08 5e-08 5e-08 5e-08 4.99997e-08 4.99998e-08 4.99998e-08 4.99998e-08 4.99998e-08 4.99998e-08 4.99998e-08 4.99998e-08 4.99998e-08 4.99998e-08 4.99998e-08 4.99998e-08 4.99998e-08 4.99998e-08 4.99998e-08 4.99998e-08 4.99998e-08 4.99998e-08 4.99998e-08 4.99998e-08 4.99998e-08 4.99998e-08 4.99998e-08 4.99998e-08 4.99998e-08 4.99999e-08 4.99999e-08 4.99999e-08 4.99999e-08 4.99999e-08 4.99999e-08 4.99999e-08 4.99999e-08 4.99999e-08 4.99999e-08 4.99999e-08 4.99999e-08 4.99999e-08 4.99999e-08 4.99999e-08 4.99999e-08 4.99999e-08 4.99999e-08 4.99999e-08 4.99999e-08 4.99999e-08 4.99999e-08 4.99999e-08 4.99999e-08 4.99999e-08 4.99999e-08 4.99999e-08 4.99999e-08 4.99999e-08 4.99999e-08 4.99999e-08 4.99999e-08 4.99999e-08 4.99999e-08 4.99999e-08 4.99999e-08 4.99999e-08 4.99999e-08 4.99999e-08 4.99999e-08 5e-08 5e-08 5e-08 5e-08 5e-08 5e-08 5e-08 5e-08 5e-08 5e-08 5e-08 5e-08 5e-08 5e-08 5e-08 5e-08 5e-08 5e-08 5e-08 5e-08 5e-08 5e-08 5e-08 5e-08 5e-08 5e-08 4.99999e-08 4.99999e-08 4.99999e-08 4.99999e-08 4.99999e-08 4.99999e-08 4.99999e-08 4.99999e-08 4.99999e-08 4.99999e-08 4.99999e-08 4.99999e-08 4.99999e-08 4.99999e-08 4.99999e-08 4.99999e-08 4.99999e-08 4.99999e-08 4.99999e-08 4.99999e-08 4.99999e-08 4.99999e-08 4.99999e-08 4.99999e-08 4.99999e-08 4.99999e-08 4.99999e-08 4.99999e-08 4.99999e-08 4.99999e-08 4.99999e-08 4.99999e-08 4.99999e-08 4.99999e-08 4.99999e-08 4.99999e-08 4.99999e-08 4.99999e-08 4.99999e-08 4.99999e-08 4.99999e-08 4.99999e-08 4.99999e-08 4.99999e-08 4.99999e-08 4.99999e-08 4.99999e-08 4.99999e-08 4.99999e-08 4.99999e-08 4.99999e-08 4.99999e-08 4.99999e-08 4.99999e-08 4.99999e-08 4.99999e-08 4.99999e-08 4.99999e-08 4.99999e-08 4.99999e-08 4.99999e-08 4.99999e-08 4.99999e-08 4.99999e-08 4.99999e-08 4.99999e-08 4.99999e-08 4.99999e-08 4.99999e-08 4.99999e-08 4.99999e-08 4.99999e-08 4.99999e-08 4.99999e-08 4.99999e-08 4.99999e-08 4.99999e-08 4.99999e-08 4.99999e-08 4.99999e-08 4.99999e-08 4.99999e-08 4.99999e-08 5e-08 5e-08 5e-08 5e-08 5e-08 5e-08 5e-08 5e-08 5e-08 5e-08 5e-08 5e-08 5e-08 5e-08 5e-08 5e-08 5e-08 5e-08 5e-08 5e-08 4.99999e-08 4.99999e-08 4.99999e-08 4.99999e-08 4.99999e-08 4.99999e-08 4.99999e-08 4.99999e-08 4.99999e-08 4.99999e-08 4.99999e-08 4.99999e-08 4.99999e-08 4.99999e-08 4.99999e-08 4.99999e-08 4.99999e-08 4.99999e-08 4.99999e-08 4.99999e-08 4.99999e-08 4.99999e-08 4.99999e-08 4.99999e-08 4.99999e-08 4.99999e-08 4.99999e-08 4.99999e-08 4.99999e-08 4.99999e-08 4.99999e-08 4.99999e-08 4.99999e-08 4.99999e-08 4.99999e-08 4.99999e-08 4.99999e-08 4.99999e-08 4.99999e-08 4.99999e-08 4.99999e-08 4.99999e-08 4.99999e-08 4.99999e-08 4.99999e-08 4.99999e-08 4.99999e-08 4.99999e-08 4.99999e-08 4.99999e-08 4.99999e-08 4.99999e-08 4.99999e-08 4.99999e-08 4.99999e-08 4.99999e-08 4.99999e-08 4.99999e-08 4.99999e-08 4.99999e-08 4.99999e-08 4.99999e-08 4.99999e-08 4.99999e-08 4.99999e-08 4.99999e-08 4.99999e-08 4.99999e-08 4.99999e-08 4.99999e-08 5e-08 5e-08 5e-08 5e-08 5e-08 5e-08 5e-08 5e-08 5e-08 5e-08 5e-08 5e-08 5e-08 5e-08 5e-08 5e-08 5e-08 5e-08 5e-08 5e-08 5e-08 5e-08 5e-08 5e-08 5e-08 5e-08 5e-08 5e-08 5e-08 5e-08 5e-08 5e-08 5e-08 5e-08 5e-08 5e-08 5e-08 5e-08 5e-08 5e-08 5e-08 4.99999e-08 4.99999e-08 4.99999e-08 4.99999e-08 4.99999e-08 4.99999e-08 4.99999e-08 4.99999e-08 4.99999e-08 4.99999e-08 4.99999e-08 4.99999e-08 4.99999e-08 4.99999e-08 4.99999e-08 4.99999e-08 4.99999e-08 4.99999e-08 4.99999e-08 4.99999e-08 4.99999e-08 4.99999e-08 4.99999e-08 4.99999e-08 4.99999e-08 4.99999e-08 4.99999e-08 4.99999e-08 4.99999e-08 4.99999e-08 4.99999e-08 4.99999e-08 4.99999e-08 4.99999e-08 4.99999e-08 4.99999e-08 4.99999e-08 4.99999e-08 4.99999e-08 4.99999e-08 4.99999e-08 4.99999e-08 4.99999e-08 4.99999e-08 4.99999e-08 4.99999e-08 4.99999e-08 4.99999e-08 4.99999e-08 4.99999e-08 5e-08 4.99999e-08 4.99999e-08 4.99999e-08 4.99999e-08 4.99999e-08 4.99999e-08 4.99999e-08 4.99999e-08 4.99999e-08 4.99999e-08 4.99999e-08 4.99999e-08 4.99999e-08 4.99999e-08 4.99999e-08 4.99999e-08 4.99999e-08 4.99999e-08 4.99999e-08 4.99999e-08 4.99999e-08 4.99999e-08 4.99999e-08 4.99999e-08 4.99999e-08 4.99999e-08 4.99999e-08 4.99999e-08 4.99999e-08 4.99999e-08 4.99999e-08 4.99999e-08 4.99999e-08 4.99999e-08 4.99999e-08 4.99999e-08 4.99999e-08 4.99999e-08 4.99999e-08 4.99999e-08 4.99999e-08 4.99999e-08 4.99999e-08 4.99999e-08 4.99999e-08 4.99999e-08 4.99999e-08 4.99999e-08 4.99999e-08 4.99999e-08 4.99999e-08 4.99999e-08 4.99999e-08 4.99999e-08 4.99999e-08 4.99999e-08 4.99999e-08 5e-08 5e-08 5e-08 5e-08 5e-08 4.99999e-08 4.99999e-08 4.99999e-08 4.99999e-08 4.99999e-08 4.99999e-08 4.99999e-08 4.99999e-08 4.99999e-08 4.99999e-08 4.99999e-08 4.99999e-08 4.99999e-08 4.99999e-08 4.99999e-08 4.99999e-08 4.99999e-08 4.99999e-08 4.99999e-08 4.99999e-08 4.99999e-08 4.99999e-08 4.99999e-08 4.99999e-08 4.99999e-08 4.99999e-08 4.99999e-08 4.99999e-08 4.99999e-08 4.99999e-08 4.99999e-08 4.99999e-08 4.99999e-08 4.99999e-08 4.99999e-08 4.99999e-08 4.99999e-08 4.99999e-08 4.99999e-08 4.99999e-08 4.99999e-08 4.99999e-08 4.99999e-08 4.99999e-08 4.99999e-08 4.99999e-08 4.99999e-08 4.99999e-08 4.99999e-08 4.99999e-08 4.99999e-08 4.99999e-08 4.99999e-08 4.99999e-08 4.99999e-08 4.99999e-08 4.99999e-08 4.99999e-08 4.99999e-08 4.99999e-08 4.99999e-08 4.99999e-08 4.99999e-08 4.99999e-08 4.99999e-08 4.99999e-08 4.99999e-08 4.99999e-08 4.99999e-08 4.99999e-08 4.99999e-08 4.99999e-08 4.99999e-08 4.99999e-08 4.99999e-08 4.99999e-08 4.99999e-08 4.99999e-08 4.99999e-08 4.99999e-08 4.99999e-08 4.99999e-08 4.99999e-08 4.99999e-08 4.99999e-08 4.99999e-08 4.99999e-08 4.99999e-08 4.99999e-08 4.99999e-08 4.99999e-08 4.99999e-08 4.99999e-08 4.99999e-08 4.99999e-08 4.99999e-08 4.99999e-08 4.99999e-08 4.99999e-08 4.99999e-08 4.99999e-08 4.99999e-08 4.99999e-08 4.99999e-08 4.99999e-08 4.99999e-08 4.99999e-08 4.99999e-08 4.99999e-08 4.99999e-08 4.99999e-08 4.99999e-08 4.99999e-08 4.99999e-08 4.99999e-08 4.99999e-08 4.99999e-08 4.99999e-08 4.99999e-08 4.99999e-08 4.99999e-08 4.99999e-08 4.99999e-08 4.99999e-08 4.99999e-08 4.99999e-08 4.99999e-08 4.99999e-08 4.99999e-08 4.99999e-08 4.99999e-08 4.99999e-08 4.99999e-08 4.99999e-08 4.99999e-08 4.99999e-08 5e-08 5e-08 5e-08 5e-08 5e-08 5e-08 5e-08 5e-08 5e-08 5e-08 5e-08 5e-08 5e-08 5e-08 5e-08 5e-08 5e-08 5e-08 5e-08 5e-08 5e-08 5e-08 5e-08 5e-08 5e-08 5e-08 5e-08 5e-08 5e-08 5e-08 5e-08 5e-08 5e-08 5e-08 5e-08 5e-08 5e-08 5e-08 5e-08 5e-08 5e-08 5e-08 5e-08 5e-08 5e-08 5e-08 5e-08 5e-08 5e-08 5e-08 5e-08 5e-08 5e-08 5e-08 5e-08 5e-08 5e-08 5e-08 5e-08 5e-08 5e-08 5e-08 5e-08 5e-08 5e-08 5e-08 5e-08 5e-08 5e-08 5e-08 5e-08 5e-08 5e-08 5e-08 5e-08 5e-08 5e-08 5e-08 5e-08 5e-08 5e-08 5e-08 5e-08 5e-08 5e-08 5e-08 5e-08 5e-08 5e-08 5e-08 5e-08 5e-08 5e-08 5e-08 5e-08 5e-08 5e-08 5e-08 5e-08 5e-08 5e-08 5e-08 5e-08 5e-08 5e-08 5e-08 5e-08 5e-08 5e-08 5e-08 5e-08 5e-08 5e-08 5e-08 5e-08 5e-08 5e-08 5e-08 5e-08 5e-08 5e-08 5e-08 5e-08 5e-08 5e-08 5e-08 5e-08 5e-08 5e-08 5e-08 5e-08 5e-08 5e-08 5e-08 5e-08 5e-08 5e-08 5e-08 5e-08 5e-08 5e-08 5e-08 5e-08 5e-08 5e-08 5e-08 5e-08 5e-08 5e-08 5e-08 5e-08 5e-08 5e-08 5e-08 5e-08 5e-08 5e-08 5e-08 5e-08 5e-08 5e-08 5e-08 5e-08 5e-08 5e-08 5e-08 5e-08 5e-08 5e-08 5e-08 5e-08 5e-08 5e-08 5e-08 5e-08 5e-08 5e-08 5e-08 5e-08 5e-08 5e-08 5e-08 5e-08 5e-08 5e-08 5e-08 5e-08 5e-08 5e-08 5e-08 5e-08 5e-08 5e-08 5e-08 5e-08 5e-08 5e-08 5e-08 5e-08 5e-08 5e-08 5e-08 5e-08 5e-08 5e-08 5e-08 5e-08 5e-08 5e-08 5e-08 5e-08 5e-08 5e-08 5e-08 5e-08 5e-08 5e-08 5e-08 5e-08 5e-08 5e-08 5e-08 5e-08 5e-08 5e-08 5e-08 5e-08 5e-08 5e-08 5e-08 5e-08 5e-08 5e-08 5e-08 5e-08 5e-08 5e-08 5e-08 5e-08 5e-08 5e-08 5e-08 5e-08 5e-08 5e-08 5e-08 5e-08 5e-08 5e-08 5e-08 5e-08 5e-08 5e-08 5e-08 5e-08 5e-08 5e-08 5e-08 5e-08 5e-08 5e-08 5e-08 5e-08 5e-08 5e-08 5e-08 5e-08 5e-08 5e-08 5e-08 5e-08 5e-08 5e-08 5e-08 5e-08 5e-08 5e-08 5e-08 5e-08 5e-08 5e-08 5e-08 5e-08 5e-08 5e-08 5e-08 5e-08 5e-08 5e-08 5e-08 5e-08 5e-08 5e-08 5e-08 5e-08 5e-08 5e-08 5e-08 5e-08 5e-08 5e-08 5e-08 5e-08 5e-08 5e-08 5e-08 5e-08 5e-08 5e-08 5e-08 5e-08 5e-08 5e-08 4.99999e-08 4.99999e-08 4.99999e-08 4.99999e-08 4.99999e-08 4.99999e-08 4.99999e-08 4.99999e-08 4.99999e-08 4.99999e-08 4.99999e-08 4.99999e-08 4.99999e-08 4.99999e-08 4.99999e-08 4.99999e-08 4.99999e-08 4.99999e-08 4.99999e-08 4.99999e-08 4.99999e-08 4.99999e-08 4.99999e-08 4.99999e-08 4.99999e-08 4.99999e-08 4.99999e-08 4.99999e-08 4.99999e-08 4.99999e-08 4.99999e-08 4.99999e-08 4.99999e-08 4.99999e-08 4.99999e-08 4.99999e-08 4.99999e-08 4.99999e-08 4.99999e-08 4.99999e-08 4.99999e-08 4.99999e-08 4.99999e-08 4.99999e-08 4.99999e-08 4.99999e-08 4.99999e-08 4.99999e-08 4.99999e-08 4.99999e-08 4.99999e-08 4.99999e-08 4.99999e-08 4.99999e-08 4.99999e-08 4.99999e-08 4.99999e-08 4.99999e-08 4.99999e-08 4.99999e-08 4.99999e-08 4.99999e-08 4.99999e-08 4.99999e-08 4.99999e-08 4.99999e-08 4.99999e-08 4.99999e-08 4.99999e-08 4.99999e-08 4.99999e-08 4.99999e-08 4.99999e-08 4.99999e-08 4.99999e-08 4.99999e-08 4.99999e-08 4.99999e-08 4.99999e-08 4.99999e-08 4.99999e-08 4.99999e-08 4.99999e-08 4.99999e-08 4.99999e-08 4.99999e-08 4.99999e-08 4.99999e-08 4.99999e-08 4.99999e-08 4.99999e-08 4.99999e-08 4.99999e-08 4.99999e-08 4.99999e-08 4.99999e-08 4.99999e-08 4.99999e-08 4.99999e-08 4.99999e-08 4.99999e-08 4.99999e-08 4.99999e-08 4.99999e-08 4.99999e-08 4.99999e-08 4.99999e-08 4.99999e-08 4.99999e-08 4.99999e-08 4.99999e-08 4.99999e-08 4.99999e-08 4.99999e-08 4.99999e-08 4.99999e-08 4.99999e-08 4.99999e-08 4.99999e-08 4.99999e-08 4.99999e-08 4.99999e-08 5e-08 5e-08 5e-08 5e-08 5e-08 5e-08 5e-08 5e-08 5e-08 5e-08 5e-08 5e-08 5e-08 5e-08 5e-08 5e-08 5e-08 5e-08 5e-08 5e-08 5e-08 5e-08 5e-08 5e-08 5e-08 5e-08 5e-08 5e-08 5e-08 5e-08 5e-08 5e-08 5e-08 5e-08 5e-08 5e-08 5e-08 5e-08 5e-08 5e-08 5e-08 5e-08 5e-08 5e-08 5e-08 5e-08 5e-08 5e-08 5e-08 5e-08 5e-08 5e-08 5e-08 5e-08 5e-08 5e-08 5e-08 5e-08 5e-08 5e-08 5e-08 5e-08 5e-08 5e-08 5e-08 5e-08 5e-08 5e-08 5e-08 5e-08 5e-08 5e-08 5e-08 5e-08 5e-08 5e-08 5e-08 5e-08 5e-08 5e-08 5e-08 4.99999e-08 4.99999e-08 4.99999e-08 4.99999e-08 4.99999e-08 4.99999e-08 4.99999e-08 4.99999e-08 4.99999e-08 4.99999e-08 4.99999e-08 4.99999e-08 4.99999e-08 4.99999e-08 4.99999e-08 5e-08 5e-08 5e-08 5e-08 5e-08 5e-08 5e-08 5e-08 5e-08 5e-08 5e-08 5e-08 5e-08 5e-08 5e-08 5e-08 5e-08 5e-08 5e-08 5e-08 5e-08 5e-08 5e-08 5e-08 5e-08 5e-08 5e-08 5e-08 5e-08 5e-08 5e-08 5e-08 5e-08 5e-08 5e-08 5e-08 5e-08 5e-08 5e-08 5e-08 5e-08 5e-08 5e-08 5e-08 5e-08 5e-08 5e-08 5e-08 5e-08 5e-08 5e-08 5e-08 5e-08 5e-08 5e-08 5e-08 5e-08 5e-08 5e-08 5e-08 5e-08 5e-08 5e-08 5e-08 5e-08 5e-08 5e-08 5e-08 5e-08 5e-08 5e-08 5e-08 5e-08 5e-08 5e-08 5e-08 5e-08 5e-08 5e-08 5e-08 5e-08 5e-08 5e-08 5e-08 5e-08 5e-08 5e-08 5e-08 5e-08 5e-08 5e-08 5e-08 5e-08 5e-08 5e-08 5e-08 5e-08 5e-08 5e-08 5e-08 5e-08 5e-08 5e-08 5e-08 5e-08 5e-08 5e-08 5e-08 5e-08 5e-08 5e-08 5e-08 5e-08 5e-08 5e-08 5e-08 5e-08 5e-08 5e-08 5e-08 5e-08 5e-08 5e-08 5e-08 5e-08 5e-08 5e-08 5e-08 5e-08 5e-08 5e-08 5e-08 5e-08 5e-08 5e-08 5e-08 5e-08 5e-08 5e-08 5e-08 5e-08 5e-08 5e-08 5e-08 5e-08 5e-08 5e-08 5e-08 5e-08 5e-08 5e-08 5e-08 5e-08 5e-08 5e-08 5e-08 5e-08 5e-08 5e-08 5e-08 5e-08 5e-08 5e-08 5e-08 5e-08 5e-08 5e-08 5e-08 5e-08 5e-08 5e-08 5e-08 5e-08 5e-08 5e-08 5e-08 5e-08 5e-08 5e-08 5e-08 5e-08 5e-08 5e-08 5e-08 5e-08 5e-08 5e-08 5e-08 5e-08 5e-08 5e-08 5e-08 5e-08 5e-08 5e-08 5e-08 5e-08 5e-08 5e-08 5e-08 5e-08 5e-08 5e-08 5e-08 5e-08 5e-08 5e-08 5e-08 5e-08 5e-08 5e-08 5e-08 5e-08 5e-08 5e-08 5e-08 5e-08 5e-08 5e-08 5e-08 5e-08 5e-08 5e-08 5e-08 5e-08 5e-08 
        </DataArray>
      </PointData>
    </Piece>
  </UnstructuredGrid>
</VTKFile>
