<?xml version="1.0"?>
<VTKFile type="UnstructuredGrid" version="0.1" byte_order="LittleEndian">
  <Time timestep="0.001"/>
  <UnstructuredGrid>
    <Piece NumberOfPoints="903" NumberOfCells="899">
      <Points>
        <DataArray type="Float32" NumberOfComponents="3" format="ascii">
-8.0143 -12.677 0.1283 -8.2187 -14.5214 0.2948 -8.7411 -16.3672 0.5247 -10.0309 -17.8905 1.1419 -11.386 -19.3222 1.89 -12.7254 -20.8552 2.392 -14.0432 -22.4116 2.6217 -14.6972 -24.3185 2.0715 -15.5306 -26.234 2.0482 -16.1094 -27.8038 2.3068 -14.7796 -28.9827 3.1257 -13.6062 -30.5844 3.6202 -12.2537 -32.1091 3.9089 -11.1222 -33.7683 4.2796 -10.1932 -35.2295 5.196 -9.3619 -36.7283 6.3117 -8.5851 -38.2492 7.4144 -7.5935 -39.8435 8.2499 -6.8916 -41.4349 9.2193 -6.2727 -43.3267 9.6108 -5.7427 -44.6215 10.9758 -5.2774 -45.3085 12.8612 -4.5701 -46.2857 12.7646 -3.9187 -47.0128 11.0346 -3.487 -47.3534 9.0584 -3.1601 -48.3203 10.2056 -2.5906 -49.7167 11.29 -2.064 -51.2649 10.2609 -1.9023 -53.0628 10.2828 -1.2374 -53.7481 8.8883 -0.2338 -55.4757 8.438 0.9268 -57.1391 8.1846 2.1659 -58.7648 8.26 2.7966 -60.3652 9.2072 3.5606 -62.0815 8.7826 4.1051 -63.9769 8.2533 4.7728 -65.8913 8.0534 5.555 -67.7898 8.1794 5.4215 -69.7319 8.5591 5.3722 -71.1779 9.39 6.6015 -72.8224 9.4344 7.9091 -74.3345 9.4579 9.1469 -75.9691 9.4502 10.0298 -77.8076 9.4917 10.7723 -79.6982 9.5101 12.3735 -80.8411 9.4583 13.4145 -82.6176 9.4397 14.1594 -84.5026 9.6273 14.908 -86.352 10.0263 15.6285 -88.1574 10.421 16.2688 -90.0988 10.1972 16.8061 -92.0324 10.2983 18.0591 -93.5211 10.9131 19.0692 -95.1762 11.592 20.0514 -96.8019 12.3554 20.7986 -98.4251 13.1509 22.3425 -99.643 13.6764 23.1324 -101.452 13.8694 24.2278 -103.176 13.8286 25.7948 -104.465 13.8973 27.3532 -105.795 13.951 28.4996 -107.423 13.9547 30.0108 -108.56 13.6639 31.1081 -108.609 12.0588 29.9694 -109.91 10.9348 28.8308 -111.21 9.8109 27.6922 -112.511 8.6869 26.8377 -113.477 7.7017 28.1153 -111.967 8.2837 29.3929 -110.456 8.8658 30.6706 -108.946 9.4479 31.1787 -108.975 10.7509 31.0798 -109.308 12.7833 31.1974 -110.389 14.0207 31.8589 -112.244 14.4776 32.2207 -114.081 14.8897 32.3754 -116.09 14.7382 33.2282 -117.763 14.1097 34.0263 -119.608 13.7086 34.4263 -121.594 13.4703 34.6735 -123.595 13.4834 34.4631 -125.614 13.6554 35.477 -127.198 13.9548 36.4488 -128.373 14.9241 36.0423 -130.187 15.3722 35.1621 -131.552 15.4371 35.6418 -129.852 14.8263 35.0348 -128.062 14.2107 35.5446 -129.844 14.1534 35.6291 -131.858 14.0497 34.8485 -133.618 13.7199 34.2995 -135.309 12.7219 33.9891 -137.213 12.2496 34.6951 -139.136 12.158 34.4342 -141.072 12.4762 34.9496 -142.891 13.1328 35.1207 -144.674 12.8365 36.0553 -146.471 12.5635 36.5162 -147.923 11.2272 37.0821 -149.692 10.5935 38.1845 -151.367 10.8233 38.9786 -152.557 11.4668 38.5512 -154.493 11.7745 38.9845 -156.482 12.0272 38.8087 -158.469 12.102 39.4316 -160.399 12.1561 40.017 -162.149 11.7738 39.9044 -164.064 11.3068 40.4166 -165.909 10.6066 41.3853 -167.549 10.7632 42.1247 -169.127 11.6727 42.1485 -170.826 12.6221 41.2541 -172.153 13.7028 41.3329 -173.641 14.3131 41.6008 -174.868 12.6805 41.8738 -176.8 12.275 42.7438 -178.546 11.9564 43.2439 -180.458 12.0397 43.3656 -182.43 12.4106 43.6747 -184.215 13.2717 44.1736 -186.124 13.8383 44.3535 -187.907 14.7675 44.8726 -189.568 15.6922 45.4404 -191.1 14.5715 46.1386 -192.926 14.1459 46.6287 -194.889 13.783 47.9055 -196.435 13.3908 49.0241 -197.956 13.467 49.8322 -199.376 13.2319 51.04 -200.399 12.0409 -16.8109 -27.3553 2.8101 -17.497 -28.3029 4.2038 -18.1984 -29.271 5.5067 -18.2577 -29.3412 3.7473 -18.2679 -29.344 1.9276 -18.2781 -29.3467 0.108 -18.2883 -29.3494 -1.7116 -18.2985 -29.3522 -3.5313 -18.8534 -30.5664 -3.9808 -18.8107 -32.318 -3.8597 -19.3066 -34.0554 -3.7456 -18.9488 -34.5418 -2.2544 -18.3075 -35.7012 -1.0566 -18.003 -37.2922 -0.254 -17.2153 -38.7422 0.5062 -17.2992 -40.1694 1.5541 -17.1185 -41.7267 2.3954 -17.083 -42.8762 3.6698 -17.3639 -44.4413 4.545 -18.2212 -45.6938 5.2818 -18.9632 -46.7735 4.1464 -19.2427 -47.6114 2.5633 -19.7572 -49.1601 2.2576 -20.0441 -50.8741 2.5491 -20.3286 -52.4364 3.2684 -19.8077 -53.8024 3.6098 -19.2008 -54.6661 2.2731 -18.7221 -56.0354 2.9434 -18.7365 -56.729 4.1896 -18.8997 -58.1413 5.2798 -18.8149 -59.8936 5.7078 -18.9822 -61.072 7.0484 -19.3934 -62.5349 8.0119 -19.547 -63.8484 9.0694 -19.5772 -65.5723 8.63 -19.258 -67.3139 8.3405 -19.7508 -69.0603 8.364 -19.9946 -70.8175 8.7102 -19.8037 -72.5539 9.1873 -19.7201 -74.3251 9.5635 -20.2567 -75.9938 9.7611 -19.7758 -77.7066 9.8918 -19.8692 -79.394 10.0722 -20.6153 -80.6503 10.7965 -20.8101 -82.0334 11.1362 -21.8468 -83.2751 10.5156 -22.3598 -84.646 11.4203 -22.8139 -86.2646 12.0203 -22.9433 -87.4114 13.1988 -23.2601 -88.7922 14.1473 -23.5187 -90.5915 14.1567 -23.7693 -92.3875 14.2837 -23.9193 -94.161 14.5659 -24.765 -95.4177 14.2775 -25.6946 -96.5629 13.7452 -26.3361 -98.2508 13.7081 -26.22 -99.6251 14.4174 -26.029 -100.232 16.1217 -25.98 -100.937 17.7977 -26.1774 -101.196 19.58 -26.4133 -101.381 21.3748 -26.5757 -102.902 22.0388 -26.565 -104.106 22.8298 -10.4886 -18.1238 0.6694 -10.4015 -18.057 0.4643 -11.3637 -19.3353 1.4826 -12.4409 -20.4928 2.3203 -13.7335 -21.882 2.6066 -14.3525 -23.4451 1.6476 -14.7639 -24.7529 0.4153 -15.0123 -25.6795 -1.2982 -14.7483 -27.3027 -2.2341 -14.1682 -28.7546 -3.3613 -14.1335 -30.3237 -2.5621 -14.176 -32.0715 -1.7097 -14.076 -33.7889 -0.9359 -13.8862 -35.6563 -1.4771 -13.5408 -37.5381 -1.8551 -12.9254 -39.3671 -2.0095 -12.8947 -41.2639 -2.5483 -12.5093 -43.0891 -2.3969 -11.8636 -44.7358 -1.5183 -11.3409 -46.4019 -0.6056 -11.0233 -47.5467 0.9658 -10.5913 -48.4457 2.6789 -10.1405 -50.0833 3.3431 -10.2934 -51.7904 2.9275 -10.88 -52.8858 1.4404 -11.0363 -54.4811 1.7038 -11.1458 -56.3254 2.378 -10.357 -57.7555 3.4384 -10.1358 -58.8326 4.9901 -10.3077 -60.6124 5.6598 -11.2813 -62.2927 6.0116 -11.7958 -64.1934 6.181 -12.4342 -66.0517 6.3974 -11.9522 -67.7789 6.8906 -11.6762 -69.0382 8.2561 -11.713 -70.0381 9.9612 -11.8555 -70.9146 11.6774 -12.8132 -71.5235 13.2459 -13.5753 -72.2336 12.7301 -14.1638 -73.7043 11.8882 -14.4131 -75.2707 10.815 -13.5782 -77.0011 10.3425 -13.3259 -78.9499 10.1371 -13.3622 -80.9141 10.3308 -14.2376 -82.5066 10.9807 -14.7845 -84.1023 11.9265 -15.3519 -85.4422 12.6525 -15.7865 -86.6616 12.098 -16.5522 -87.7496 13.5364 -17.1687 -89.5648 13.8022 -18.2162 -91.1682 13.885 -19.5493 -92.634 13.9514 -20.3209 -94.4426 13.8656 -21.0095 -96.2837 13.6721 -21.3384 -97.8523 13.9673 -21.6939 -97.8965 15.9193 -22.3276 -98.0602 17.7316 -21.887 -98.9874 16.7979 -22.8153 -99.7306 15.3374 -24.3779 -100.669 14.7056 -24.3457 -102.628 14.3888 -24.5768 -104.562 14.2213 -24.8282 -106.507 14.2205 -25.0574 -108.461 14.1941 -25.5558 -110.338 14.0236 -26.9412 -111.665 13.5497 -27.6548 -113.199 12.651 -27.9593 -114.165 11.0361 -28.3565 -115.375 10.0919 -29.1471 -116.498 9.0352 -29.5399 -117.046 7.1689 -29.9596 -117.655 5.3281 -30.9613 -118.935 4.5188 -32.1435 -120.232 4.6581 -32.9363 -121.047 6.2793 -33.621 -122.221 7.5953 -33.9105 -123.585 8.7937 -34.4873 -124.387 10.3397 -35.0405 -125.766 11.4307 -34.701 -127.632 11.772 -35.3063 -129.499 11.9181 -35.9903 -131.327 11.7835 -37.6819 -132.134 11.31 -38.5009 -133.481 10.3217 -38.4967 -134.742 8.9782 -39.2613 -136.119 9.0235 -39.6486 -137.873 9.0943 -40.3927 -139.558 8.4232 -41.3357 -141.228 8.0319 -41.7461 -143.133 7.6854 -42.0138 -145.006 7.4829 -41.9887 -146.622 8.5512 -43.1363 -148.144 8.915 -43.8626 -149.883 8.3731 -44.926 -151.403 7.7386 -8.8146 -13.9429 0.1666 -9.353 -14.8211 0.2731 -11.0559 -15.5864 0.7158 -12.8605 -15.9487 1.177 -14.323 -16.6873 2.6356 -15.6273 -17.7486 4.2904 -16.5612 -19.3299 4.837 -17.0333 -20.2944 6.2453 -17.8874 -21.5361 7.3823 -18.8508 -22.9769 8.1796 -19.5099 -24.5801 8.9543 -19.7318 -25.6734 10.3712 -19.6375 -26.5275 11.987 -20.9183 -27.5166 12.4491 -21.2964 -29.0814 13.3143 -21.83 -30.7644 14.0149 -22.4092 -32.288 14.7504 -23.1716 -32.8787 16.4102 -23.4458 -33.3976 17.1662 -23.9797 -35.1098 17.8018 -25.2888 -36.4276 18.1128 -26.4013 -37.9363 18.2431 -27.2908 -39.5473 18.3867 -28.9068 -40.2841 18.3568 -28.8386 -41.8551 18.071 -30.0593 -43.3052 18.0707 -30.6546 -44.9959 18.2212 -31.4097 -46.5757 18.3297 -32.6885 -47.8644 18.2798 -33.6705 -49.4532 18.3794 -34.3435 -51.1833 18.7706 -35.0428 -52.643 19.7515 -35.9334 -53.9164 20.8542 -36.4958 -55.5633 21.6175 -37.1515 -57.2664 22.1901 -37.503 -58.9135 22.7742 -37.2767 -60.629 23.5408 -38.3487 -62.1152 24.0868 -38.7835 -63.8894 24.6417 -39.0307 -65.5698 25.4324 -39.2448 -67.4312 25.7075 -39.4113 -69.2406 26.1323 -38.2265 -70.1613 27.1367 -37.9293 -71.6381 28.1838 -36.7386 -72.8721 28.5562 -35.4143 -74.1273 28.8617 -33.8413 -75.1427 29.2839 -32.9832 -76.7229 29.5771 -33.6399 -75.092 29.1649 -33.1635 -76.3575 28.5144 -32.6394 -77.9449 29.3953 -31.5586 -79.4236 29.8926 -30.8094 -81.0765 30.3763 -31.5811 -82.6547 30.6865 -31.7168 -84.5489 30.8274 -31.5105 -86.4537 30.8357 -31.5377 -88.3667 30.7633 -31.4829 -90.279 30.6456 -31.9235 -92.1277 30.4947 -32.2806 -93.9944 30.2829 -33.2826 -95.4749 30.073 -34.2923 -96.3147 29.212 -33.7984 -97.5646 29.0456 -33.365 -98.5644 30.3242 -34.9529 -99.5888 30.5864 -35.3561 -101.238 30.5528 -35.425 -102.19 29.7785 -35.4381 -103.611 30.0236 -35.4329 -104.952 28.8355 -35.4888 -106.615 28.0477 -35.1318 -108.026 29.2064 -34.5346 -109.545 30.0645 -15.445 -16.6758 3.4162 -17.1123 -16.5493 2.7023 -18.8242 -16.1183 2.2844 -20.5247 -15.3962 2.2003 -22.3116 -15.3473 2.4856 -24.0423 -14.9367 2.9859 -25.7912 -14.8802 3.5418 -27.6376 -14.8877 3.7424 -29.4617 -14.8882 3.7168 -31.2202 -15.3922 3.5297 -32.7539 -15.8243 2.9445 -34.0829 -16.2305 1.7975 -35.3566 -17.1047 0.7776 -36.7811 -17.3591 0.0703 -38.4049 -17.2529 0.8951 -40.1857 -16.9717 1.2216 -41.9745 -17.3706 1.348 -43.6645 -17.7288 1.1737 -45.1638 -16.9527 0.472 -46.3865 -16.2335 -0.6264 -48.1583 -16.038 -0.1893 -49.5586 -16.5997 0.7893 -50.6275 -17.7832 1.5574 -52.4581 -17.9497 1.6886 -54.2203 -17.8442 1.1278 -55.6575 -18.4041 0.1681 -57.139 -19.2179 -0.5793 -58.8775 -19.6978 -0.9928 -60.4992 -20.5497 -0.8751 -62.26
[...]
      <PointData>
        <DataArray type="Float32" Name="calcium" NumberOfComponents="1" format="ascii">
5e-08 5e-08 5e-08 5e-08 5e-08 5e-08 5e-08 5e-08 5e-08 5e-08 5e-08 5e-08 5e-08 5e-08 5e-08 5e-08 5e-08 5e-08 5e-08 5e-08 5e-08 5e-08 5e-08 5e-08 5e-08 5e-08 5e-08 5e-08 5e-08 5e-08 5e-08 5e-08 5e-08 5e-08 5e-08 5e-08 5e-08 5e-08 5e-08 5e-08 5e-08 5e-08 5e-08 5e-08 5e-08 5e-08 5e-08 5e-08 5e-08 5e-08 5e-08 5e-08 5e-08 5e-08 5e-08 5e-08 5e-08 5e-08 5e-08 5e-08 5e-08 5e-08 5e-08 5e-08 5e-08 5e-08 5e-08 5e-08 5e-08 5e-08 5e-08 5e-08 5e-08 5e-08 5e-08 5e-08 5e-08 5e-08 5e-08 5e-08 5e-08 5e-08 5e-08 5e-08 5e-08 5e-08 5e-08 5e-08 5e-08 5e-08 5e-08 5e-08 5e-08 5e-08 5e-08 5e-08 5e-08 5e-08 5e-08 5e-08 5e-08 5e-08 5e-08 5e-08 5e-08 5e-08 5e-08 5e-08 5e-08 5e-08 5e-08 5e-08 5e-08 5e-08 5e-08 5e-08 5e-08 5e-08 5e-08 5e-08 5e-08 5e-08 5e-08 5e-08 5e-08 5e-08 5e-08 5e-08 5e-08 5e-08 5e-08 5e-08 5e-08 5e-08 5e-08 5e-08 5e-08 5e-08 5e-08 5e-08 5e-08 5e-08 5e-08 5e-08 5e-08 5e-08 5e-08 5e-08 5e-08 5e-08 5e-08 5e-08 5e-08 5e-08 5e-08 5e-08 5e-08 5e-08 5e-08 5e-08 5e-08 5e-08 5e-08 5e-08 5e-08 5e-08 5e-08 5e-08 5e-08 5e-08 5e-08 5e-08 5e-08 5e-08 5e-08 5e-08 5e-08 5e-08 5e-08 5e-08 5e-08 5e-08 5e-08 5e-08 5e-08 5e-08 5e-08 5e-08 5e-08 5e-08 5e-08 5e-08 5e-08 5e-08 5e-08 5e-08 5e-08 5e-08 5e-08 5e-08 5e-08 5e-08 5e-08 5e-08 5e-08 5e-08 5e-08 5e-08 5e-08 5e-08 5e-08 5e-08 5e-08 5e-08 5e-08 5e-08 5e-08 5e-08 5e-08 5e-08 5e-08 5e-08 5e-08 5e-08 5e-08 5e-08 5e-08 5e-08 5e-08 5e-08 5e-08 5e-08 5e-08 5e-08 5e-08 5e-08 5e-08 5e-08 5e-08 5e-08 5e-08 5e-08 5e-08 5e-08 5e-08 5e-08 5e-08 5e-08 5e-08 5e-08 5e-08 5e-08 5e-08 5e-08 5e-08 5e-08 5e-08 5e-08 5e-08 5e-08 5e-08 5e-08 5e-08 5e-08 5e-08 5e-08 5e-08 5e-08 5e-08 5e-08 5e-08 5e-08 5e-08 5e-08 5e-08 5e-08 5e-08 5e-08 5e-08 5e-08 5e-08 5e-08 5e-08 5e-08 5e-08 5e-08 5e-08 5e-08 5e-08 5e-08 5e-08 5e-08 5e-08 5e-08 5e-08 5e-08 5e-08 5e-08 5e-08 5e-08 5e-08 5e-08 5e-08 5e-08 5e-08 5e-08 5e-08 5e-08 5e-08 5e-08 5e-08 5e-08 5e-08 5e-08 5e-08 5e-08 5e-08 5e-08 5e-08 5e-08 5e-08 5e-08 5e-08 5e-08 5e-08 5e-08 5e-08 5e-08 5e-08 5e-08 5e-08 5e-08 5e-08 5e-08 5e-08 5e-08 5e-08 5e-08 5e-08 5e-08 5e-08 5e-08 5e-08 5e-08 5e-08 5e-08 5e-08 5e-08 5e-08 5e-08 5e-08 5e-08 5e-08 5e-08 5e-08 5e-08 5e-08 5e-08 5e-08 5e-08 5e-08 5e-08 5e-08 5e-08 5e-08 5e-08 5e-08 5e-08 5e-08 5e-08 5e-08 5e-08 5e-08 5e-08 5e-08 5e-08 5e-08 5e-08 5e-08 5e-08 5e-08 5e-08 5e-08 5e-08 5e-08 5e-08 5e-08 5e-08 5e-08 5e-08 5e-08 5e-08 5e-08 5e-08 5e-08 5e-08 5e-08 5e-08 5e-08 5e-08 5e-08 5e-08 5e-08 5e-08 5e-08 5e-08 5e-08 5e-08 5e-08 5e-08 5e-08 5e-08 5e-08 5e-08 5e-08 5e-08 5e-08 5e-08 5e-08 5e-08 5e-08 5e-08 5e-08 5e-08 5e-08 5e-08 5e-08 5e-08 5e-08 5e-08 5e-08 5e-08 5e-08 5e-08 5e-08 5e-08 5e-08 5e-08 5e-08 5e-08 5e-08 5e-08 5e-08 5e-08 5e-08 5e-08 5e-08 5e-08 5e-08 5e-08 5e-08 5e-08 5e-08 5e-08 5e-08 5e-08 5e-08 5e-08 5e-08 5e-08 5e-08 5e-08 5e-08 5e-08 5e-08 5e-08 5e-08 5e-08 5e-08 5e-08 5e-08 5e-08 5e-08 5e-08 5e-08 5e-08 5e-08 5e-08 5e-08 5e-08 5e-08 5e-08 5e-08 5e-08 5e-08 5e-08 5e-08 5e-08 5e-08 5e-08 5e-08 5e-08 5e-08 5e-08 5e-08 5e-08 5e-08 5e-08 5e-08 5e-08 5e-08 5e-08 5e-08 5e-08 5e-08 5e-08 5e-08 5e-08 5e-08 5e-08 5e-08 5e-08 5e-08 5e-08 5e-08 5e-08 5e-08 5e-08 5e-08 5e-08 5e-08 5e-08 5e-08 5e-08 5e-08 5e-08 5e-08 5e-08 5e-08 5e-08 5e-08 5e-08 5e-08 5e-08 5e-08 5e-08 5e-08 5e-08 5e-08 5e-08 5e-08 5e-08 5e-08 5e-08 5e-08 5e-08 5e-08 5e-08 5e-08 5e-08 5e-08 5e-08 5e-08 5e-08 5e-08 5e-08 5e-08 5e-08 5e-08 5e-08 5e-08 5e-08 5e-08 5e-08 5e-08 5e-08 5e-08 5e-08 5e-08 5e-08 5e-08 5e-08 5e-08 5e-08 5e-08 5e-08 5e-08 5e-08 5e-08 5e-08 5e-08 5e-08 5e-08 5e-08 5e-08 5e-08 5e-08 5e-08 5e-08 5e-08 5e-08 5e-08 5e-08 5e-08 5e-08 5e-08 5e-08 5e-08 5e-08 5e-08 5e-08 5e-08 5e-08 5e-08 5e-08 5e-08 5e-08 5e-08 5e-08 5e-08 5e-08 5e-08 5e-08 5e-08 5e-08 5e-08 5e-08 5e-08 5e-08 5e-08 5e-08 5e-08 5e-08 5e-08 5e-08 5e-08 5e-08 5e-08 5e-08 5e-08 5e-08 5e-08 5e-08 5e-08 5e-08 5e-08 5e-08 5e-08 5e-08 5e-08 5e-08 5e-08 5e-08 5e-08 5e-08 5e-08 5e-08 5e-08 5e-08 5e-08 5e-08 5e-08 5e-08 5e-08 5e-08 5e-08 5e-08 5e-08 5e-08 5e-08 5e-08 5e-08 5e-08 5e-08 5e-08 5e-08 5e-08 5e-08 5e-08 5e-08 5e-08 5e-08 5e-08 5e-08 5e-08 5e-08 5e-08 5e-08 5e-08 5e-08 5e-08 5e-08 5e-08 5e-08 5e-08 5e-08 5e-08 5e-08 5e-08 5e-08 5e-08 5e-08 5e-08 5e-08 5e-08 5e-08 5e-08 5e-08 5e-08 5e-08 5e-08 5e-08 5e-08 5e-08 5e-08 5e-08 5e-08 5e-08 5e-08 5e-08 5e-08 5e-08 5e-08 5e-08 5e-08 5e-08 5e-08 5e-08 5e-08 5e-08 5e-08 5e-08 5e-08 5e-08 5e-08 5e-08 5e-08 5e-08 5e-08 5e-08 5e-08 5e-08 5e-08 5e-08 5e-08 5e-08 5e-08 5e-08 5e-08 5e-08 5e-08 5e-08 5e-08 5e-08 5e-08 5e-08 5e-08 5e-08 5e-08 5e-08 5e-08 5e-08 5e-08 5e-08 5e-08 5e-08 5e-08 5e-08 5e-08 5e-08 5e-08 5e-08 5e-08 5e-08 5e-08 5e-08 5e-08 5e-08 5e-08 5e-08 5e-08 5e-08 5e-08 5e-08 5e-08 5e-08 5e-08 5e-08 5e-08 5e-08 5e-08 5e-08 5e-08 5e-08 5e-08 5e-08 5e-08 5e-08 5e-08 5e-08 5e-08 5e-08 5e-08 5e-08 5e-08 5e-08 5e-08 5e-08 5e-08 5e-08 5e-08 5e-08 5e-08 5e-08 5e-08 5e-08 5e-08 5e-08 5e-08 5e-08 5e-08 5e-08 5e-08 5e-08 5e-08 5e-08 5e-08 5e-08 5e-08 5e-08 5e-08 5e-08 5e-08 5e-08 5e-08 5e-08 5e-08 5e-08 5e-08 5e-08 5e-08 5e-08 5e-08 5e-08 5e-08 5e-08 5e-08 5e-08 5e-08 5e-08 5e-08 5e-08 5e-08 5e-08 5e-08 5e-08 5e-08 5e-08 5e-08 5e-08 5e-08 5e-08 5e-08 5e-08 5e-08 5e-08 5e-08 5e-08 5e-08 5e-08 5e-08 5e-08 5e-08 5e-08 5e-08 5e-08 5e-08 5e-08 5e-08 5e-08 5e-08 5e-08 5e-08 5e-08 5e-08 5e-08 5e-08 5e-08 5e-08 5e-08 5e-08 5e-08 5e-08 5e-08 5e-08 5e-08 5e-08 5e-08 5e-08 5e-08 5e-08 5e-08 5e-08 5e-08 5e-08 5e-08 5e-08 5e-08 5e-08 5e-08 5e-08 5e-08 5e-08 
        </DataArray>
      </PointData>
    </Piece>
  </UnstructuredGrid>
</VTKFile>
